Compiler and run-time data
===========================================================================
RASPA 2.0.9
Compiled as a 64-bits application
Compiler: gcc 4.9.2
Compile Date = Oct  4 2016, Compile Time = 18:55:03

Mon Jan 16 12:24:48 2017
Simulation started on Monday, January 16.
The start time was 12:24 PM.

Hostname:    The start time was 12:24 PM.
OS type:     The start time was 12:24 PM.
OS release:  The start time was 12:24 PM.
OS version:  The start time was 12:24 PM.

Simulation
===========================================================================
Dimensions: 3
Random number seed: 1484565885
RASPA directory set to: /home/mcplatano/RASPA/simulations
String appended to output-files: 
Number of cycles: 5000
Number of initializing cycles: 100
Number of equilibration cycles: 0
Print every: 50
Triclinic boundary condition applied
Timestep: 0.000500
Initialization Ensemble: NVE (constant number of particles N, constant volume V, constant energy E)
Production run ensemble: NVE (constant number of particles N, constant volume V, constant energy E)
	Degrees of freedom:                        834
	Translational Degrees of freedom:          816
	Rotational Degrees of freedom:             18
	Degrees of freedom Framework:              558


Mutual consistent basic set of units:
======================================
Unit of temperature: Kelvin
Unit of length:      1e-10 [m]
Unit of time:        1e-12 [s]
Unit of mass:        1.66054e-27 [kg]
Unit of charge:      1.60218e-19 [C/particle]

Derived units and their conversion factors:
===========================================
Unit of energy:              1.66054e-23 [J]
Unit of force:               1.66054e-13 [N]
Unit of pressure:            1.66054e+07 [Pa]
Unit of velocity:            100 [m/s]
Unit of acceleration:        1e-08 [m^2/s]
Unit of diffusion:           1e-08 [m^2/s]
Unit of dipole moment:       1.60218e-29 [C.m]
Unit of electric potential:  0.000103643 [V]
Unit of electric field:      1.03643e+06 [V]
Unit of polarizability:      1.54587e-35 [-]
Unit of Coulomb potential:   167101.0800066561  [K]
Unit of dielectric constant: 0.0000154587       [s^2 C^2/(kg m^3)]
Unit of wave vectors:        5.3088374589       [cm^1]
Boltzmann constant:          0.8314464919       [-]

Internal conversion factors:
===========================================
Energy to Kelvin:                                    1.2027242847
FH correction factor                                 2.0211930949
Heat capacity conversion factor:                    10.0000088723
From Debye to internal units:                        4.8032067991
Isothermal compressibility conversion factor:        0.0000000602

Energy conversion factors:
===========================================
From mdyne/A to kcal/mol/A^2:           143.933
From mdyne/A to kj/mol/A^2:             602.214
From mdyne/A to K/A^2:                  72429.7
From mdyne A/rad^2 to kcal/mol/deg^2:   0.0438444


Properties computed
===========================================================================
Movies: yes
	Movie snapshots are appended to file every 100 cycles
Radial Distribution Function: no
Number of molecules GCMC histogram: no
Histogram of the molecule positions: no
Free energy profiles: no
Pore Size Distribution Function: no
End-to-end distance: no
Histogram of the energy of the system: no
Compute thermodynamic factors: no
Framework spacing histograms: no
Residence times histograms: no
Distance histograms: no
Bend Angle histograms: no
Dihedral angle histograms: no
Angle between planes histograms: no
Molecule properties: no
Infra-red spectra: no
Mean-squared displacement using modified order-N algorithm: no
Velocity-autocorrelation function modified order-N algorithm: no
Rotational velocity-autocorrelation function modified order-N algorithm: no
Molecular orientation-autocorrelation function modified order-N algorithm: no
Bond orientation-autocorrelation function modified order-N algorithm: no
Mean-squared displacement (conventional algorithm): no
Velocity-autocorrelation function (conventional algorithm): no
3D density grid for adsorbates: no
Compute cation an/or adsorption sites: no
dcTST snapshots: no
Compute pressure and stress: no


VTK
===========================================================================
VTK fractional-range position framework atoms: [-0.001000,1.001000] [-0.001000,1.001000] [-0.001000,1.001000]
VTK fractional-range position framework bonds: [-0.151000,1.151000] [-0.151000,1.151000] [-0.151000,1.151000]
VTK fractional-range com-position adsorbate molecules: [-0.101000,1.101000] [-0.101000,1.101000] [-0.101000,1.101000]
VTK fractional-range com-position cation molecules: [-0.101000,1.101000] [-0.101000,1.101000] [-0.101000,1.101000]
	3D free energy grid made for the full simulation-cell


Thermo/Baro-stat NHC parameters
===========================================================================
External temperature: 300 [K]
Beta: 0.00400908 [energy unit]
External Pressure: 0 [Pa]


Thermostat chain-length: 3
Timescale parameter for thermostat: 0.150000 [ps]
Barostat chain-length:   3
Timescale parameter for barostat:   0.150000 [ps]

Number of Yoshida-Suzuki decomposition steps: 5
Number of respa steps: 5


Method and settings for electrostatics
===============================================================================
Dielectric constant of the medium : 1.000000
Charge from charge-equilibration: no
Ewald summation is used (exact solution of a periodic system)
Relative precision                : 1e-06
Alpha convergence parameter       : 0.265058
kvec (x,y,z)                      : 3 3 8


CFC-RXMC parameters
===========================================================================
Number of reactions: 0


Rattle parameters
===========================================================================
Distance constraint type: r^2-r^2_0
Bend angle constraint type: theta-theta_0
Dihedral angle constraint type: phi-phi_0
Inversion-bend angle constraint type: chi-chi_0
Out-of-plane distance constraint type: r-r_0


Spectra parameters
===========================================================================
Compute normal modes: no


Minimization parameters
===========================================================================
Generalized coordinates are: Cartesian center-of-mass, elements of the orientational matrix p1,p2,p3 and strain
Potential derivatives are evaluated: analytically
Translation of the system is removed from the generalized Hessian: no
Rotation of the system is removed from the generalized Hessian: no
Maximum step-length: 0.3
Convergence factor: 1
Maximum number of minimization steps: 10000
Use gradients in the line-minimizations: yes
RMS gradient tolerance: 1e-06
Maximum gradient tolerance: 1e-06

Distance constraints: 0
Angle constraints: 0
Dihedral constraints: 0

Improper dihedral constraints: 0

Inversion-bend constraints: 0

Out-of-plane constraints: 0

Harmonic distance constraints: 0
Harmonic angle constraints: 0
Harmonic dihedral constraints: 0

Dihedral mid-point measurements: 0

Number of fixed framework atoms: 0  (active: 312)
fixed atom-list: 
Number of active framework atoms: 312  (fixed: 0)
active atom-list: 

Fixed adsorbate atoms:  
Fixed adsorbate groups (center-of-mass):  
Fixed adsorbate groups (orientation):  

Fixed cation atoms:  
Fixed cation groups (center-of-mass):  
Fixed cation groups (orientation):  


dcTST parameters
===========================================================================
Free energy profiles computed: no
Free energy profiles written every 5000 cycles
Free energy mapping: mapped to a,b,c-coordinates
BarrierPosition:       0.0000000000       0.0000000000       0.0000000000
BarrierNormal:         0.0000000000       0.0000000000       0.0000000000
Start with a molecule on top of the barrier: no
Maximum distance to barrier (e.g. distance to minumum free energy):       0.0000000000 [A]
Maximum trajectory time:      10.0000000000 [ps]
Each configuration is used with 5 different initial velocities


Cbmc parameters
===========================================================================
Biasing method: using only the VDW part
Number of trial positions:                                       10
Number of trial positions (reinsertion):                         10
Number of trial positions (partial reinsertion):                 10
Number of trial positions (identity-change):                     10
Number of trial positions (Gibbs particle transfer):             10
Number of trial positions (insertion/deletion):                  10
Number of trial positions (Widom insertion):                     10
Number of trial positions coupled Torsion-selection:             100
Number of trial positions first bead:                            10
Number of trial positions first bead (reinsertion):              10
Number of trial positions first bead (partial reinsertion):      10
Number of trial positions first bead (identity-change):          10
Number of trial positions first bead (Gibbs particle transfer):  10
Number of trial positions first bead (insertion/deletion):       10
Number of trial positions first bead (Widom insertion):          10
Number of trial moves per open bead:                             150
Target acceptance ratio small-mc scheme:                         0.400000
Energy overlap criteria:                                         1e+07
Minimal Rosenbluth factor:                                       1e-150


Pseudo atoms: 22
===========================================================================
Pseudo Atom[   0] Name UNIT     Oxidation:          Element: H    pdb-name: H    Scat. Types:   1   1 Mass=1.000000000  B-factor:0.000   
                 Charge=1.000000000          Polarization=0.000000000  [A^3] (considered a charged atom and no polarization)  Interactions: yes
                 Anisotropic factor:    0.000 [-] (Absolute), Radius:    1.000 [A], Framework-atom:  no
Pseudo Atom[   1] Name Ogg      Oxidation: +0       Element: O    pdb-name: O    Scat. Types:   9   8 Mass=15.999400000 B-factor:1.000   
                 Charge=1.733957000          Polarization=0.000000000  [A^3] (considered a charged atom and no polarization)  Interactions:  no
                 Anisotropic factor:    0.000 [-] (Relative), Radius:    0.680 [A], Framework-atom:  no
Pseudo Atom[   2] Name shOgg    Oxidation: +0       Element: O    pdb-name: O    Scat. Types:   9   8 Mass=0.000000000  B-factor:1.000   
                 Charge=-3.733957000         Polarization=0.000000000  [A^3] (considered a charged atom and no polarization)  Interactions: yes
                 Anisotropic factor:    0.000 [-] (Relative), Radius:    0.000 [A], Framework-atom:  no
Pseudo Atom[   3] Name Oss      Oxidation: +0       Element: O    pdb-name: O    Scat. Types:   9   8 Mass=15.999400000 B-factor:1.000   
                 Charge=0.870733000          Polarization=0.000000000  [A^3] (considered a charged atom and no polarization)  Interactions:  no
                 Anisotropic factor:    0.000 [-] (Relative), Radius:    0.680 [A], Framework-atom:  no
Pseudo Atom[   4] Name shOss    Oxidation: +0       Element: O    pdb-name: O    Scat. Types:   9   8 Mass=0.000000000  B-factor:1.000   
                 Charge=-2.870733000         Polarization=0.000000000  [A^3] (considered a charged atom and no polarization)  Interactions: yes
                 Anisotropic factor:    0.000 [-] (Relative), Radius:    0.000 [A], Framework-atom:  no
Pseudo Atom[   5] Name Ogs      Oxidation: +0       Element: O    pdb-name: O    Scat. Types:   9   8 Mass=15.999400000 B-factor:1.000   
                 Charge=1.330431000          Polarization=0.000000000  [A^3] (considered a charged atom and no polarization)  Interactions:  no
                 Anisotropic factor:    0.000 [-] (Relative), Radius:    0.680 [A], Framework-atom:  no
Pseudo Atom[   6] Name shOgs    Oxidation: +0       Element: O    pdb-name: O    Scat. Types:   9   8 Mass=0.000000000  B-factor:1.000   
                 Charge=-3.330431000         Polarization=0.000000000  [A^3] (considered a charged atom and no polarization)  Interactions: yes
                 Anisotropic factor:    0.000 [-] (Relative), Radius:    0.000 [A], Framework-atom:  no
Pseudo Atom[   7] Name F        Oxidation: +0       Element: F    pdb-name: F    Scat. Types:  10   9 Mass=18.998404000 B-factor:1.000   
                 Charge=0.560000000          Polarization=0.000000000  [A^3] (considered a charged atom and no polarization)  Interactions: yes
                 Anisotropic factor:    0.000 [-] (Relative), Radius:    1.100 [A], Framework-atom: yes (charge from pseudo-atoms file)
Pseudo Atom[   8] Name shF      Oxidation: +0       Element: F    pdb-name: F    Scat. Types:  10   9 Mass=0.000000000  B-factor:1.000   
                 Charge=-1.560000000         Polarization=0.000000000  [A^3] (considered a charged atom and no polarization)  Interactions: yes
                 Anisotropic factor:    0.000 [-] (Relative), Radius:    0.000 [A], Framework-atom:  no
Pseudo Atom[   9] Name Si       Oxidation: +0       Element: Si   pdb-name: Si   Scat. Types:  15  14 Mass=28.085500000 B-factor:1.000   
                 Charge=4.000000000          Polarization=0.000000000  [A^3] (considered a charged atom and no polarization)  Interactions: yes
                 Anisotropic factor:    0.000 [-] (Relative), Radius:    1.100 [A], Framework-atom: yes (charge from pseudo-atoms file)
Pseudo Atom[  10] Name Al       Oxidation: +0       Element: Al   pdb-name: Al   Scat. Types:  14  13 Mass=26.981538000 B-factor:1.000   
                 Charge=3.000000000          Polarization=0.000000000  [A^3] (considered a charged atom and no polarization)  Interactions: yes
                 Anisotropic factor:    0.000 [-] (Relative), Radius:    1.100 [A], Framework-atom:  no
Pseudo Atom[  11] Name Ge       Oxidation: +0       Element: Ge   pdb-name: Ge   Scat. Types:  33  32 Mass=72.640000000 B-factor:1.000   
                 Charge=4.000000000          Polarization=0.000000000  [A^3] (considered a charged atom and no polarization)  Interactions: yes
                 Anisotropic factor:    0.000 [-] (Relative), Radius:    1.100 [A], Framework-atom: yes (charge from pseudo-atoms file)
Pseudo Atom[  12] Name C3       Oxidation: +0       Element: C    pdb-name: C    Scat. Types:   7   6 Mass=12.000000000 B-factor:1.000   
                 Charge=-0.180000000         Polarization=0.000000000  [A^3] (considered a charged atom and no polarization)  Interactions: yes
                 Anisotropic factor:    0.000 [-] (Relative), Radius:    1.000 [A], Framework-atom:  no
Pseudo Atom[  13] Name C2       Oxidation: +0       Element: C    pdb-name: C    Scat. Types:   7   6 Mass=12.000000000 B-factor:1.000   
                 Charge=-0.120000000         Polarization=0.000000000  [A^3] (considered a charged atom and no polarization)  Interactions: yes
                 Anisotropic factor:    0.000 [-] (Relative), Radius:    1.000 [A], Framework-atom:  no
Pseudo Atom[  14] Name C6       Oxidation: +0       Element: C    pdb-name: C    Scat. Types:   7   6 Mass=12.000000000 B-factor:1.000   
                 Charge=-0.150000000         Polarization=0.000000000  [A^3] (considered a charged atom and no polarization)  Interactions: yes
                 Anisotropic factor:    0.000 [-] (Relative), Radius:    1.000 [A], Framework-atom:  no
Pseudo Atom[  15] Name C4       Oxidation: +0       Element: C    pdb-name: C    Scat. Types:   7   6 Mass=12.000000000 B-factor:1.000   
                 Charge=0.620000000          Polarization=0.000000000  [A^3] (considered a charged atom and no polarization)  Interactions: yes
                 Anisotropic factor:    0.000 [-] (Relative), Radius:    1.000 [A], Framework-atom:  no
Pseudo Atom[  16] Name C5       Oxidation: +0       Element: C    pdb-name: C    Scat. Types:   7   6 Mass=12.000000000 B-factor:1.000   
                 Charge=0.610000000          Polarization=0.000000000  [A^3] (considered a charged atom and no polarization)  Interactions: yes
                 Anisotropic factor:    0.000 [-] (Relative), Radius:    1.000 [A], Framework-atom:  no
Pseudo Atom[  17] Name H1       Oxidation: +0       Element: H    pdb-name: H    Scat. Types:   1   1 Mass=1.007940000  B-factor:1.000   
                 Charge=0.060000000          Polarization=0.000000000  [A^3] (considered a charged atom and no polarization)  Interactions: yes
                 Anisotropic factor:    0.000 [-] (Relative), Radius:    0.700 [A], Framework-atom:  no
Pseudo Atom[  18] Name H6       Oxidation: +0       Element: H    pdb-name: H    Scat. Types:   1   1 Mass=1.007940000  B-factor:1.000   
                 Charge=0.150000000          Polarization=0.000000000  [A^3] (considered a charged atom and no polarization)  Interactions: yes
                 Anisotropic factor:    0.000 [-] (Relative), Radius:    0.700 [A], Framework-atom:  no
Pseudo Atom[  19] Name N1       Oxidation: +0       Element: N    pdb-name: N    Scat. Types:   8   7 Mass=14.006740000 B-factor:1.000   
                 Charge=-0.030000000         Polarization=0.000000000  [A^3] (considered a charged atom and no polarization)  Interactions: yes
                 Anisotropic factor:    0.000 [-] (Relative), Radius:    0.700 [A], Framework-atom:  no
Pseudo Atom[  20] Name N2       Oxidation: +0       Element: N    pdb-name: N    Scat. Types:   8   7 Mass=14.006740000 B-factor:1.000   
                 Charge=-0.200000000         Polarization=0.000000000  [A^3] (considered a charged atom and no polarization)  Interactions: yes
                 Anisotropic factor:    0.000 [-] (Relative), Radius:    0.700 [A], Framework-atom:  no
Pseudo Atom[  21] Name O        Oxidation:          Element: O    pdb-name: O    Scat. Types:   9   8 Mass=15.999404927 B-factor:0.000   
                 Charge=-nan         (-na-)  Polarization=0.802000000  [A^3] (considered a charged atom and no polarization)  Interactions:  no
                 Anisotropic factor:    0.000 [-] (Absolute), Radius:    0.640 [A], Framework-atom: yes (charge definition not found)


Forcefield: local
===========================================================================
Minimal distance: 1
CutOff VDW : 12.000000 (144.000000)
CutOff VDW switching on: 10.800000 (116.640000)
CutOff charge-charge : 12.000000 (144.000000)
CutOff charge-charge switching on: 7.800000 (60.840000)
CutOff charge-bonddipole : 12.000000 (144.000000)
CutOff charge-bondipole switching on: 8.400000 (70.560000)
CutOff bonddipole-bonddipole : 12.000000 (144.000000)
CutOff bonddipole-bondipole switching on: 9.000000 (81.000000)
Polarization is neglected
All potentials are shifted to zero at the Cutoff

General mixing rule: Lorentz-Berthelot mixing rules are used FIRST for cross terms
0 cross terms are overwritten using the individual mixing rules from the file 'force_field_mixing_rules.def'
and then 25 terms are overwritten using the specific interactions from the file 'force_field.def'

The force field and all the interactions:
  shOgg -   shOgg [BUCKINGHAM] p_0/k_B: 264165198.98242 [K], p_1:  6.71141 [A^-1], p_2/k_B: 126919.10053 [K A^6], shift/k_B: -0.04250 [K]
  shOgg -   shOss [BUCKINGHAM] p_0/k_B: 264165198.98242 [K], p_1:  6.71141 [A^-1], p_2/k_B: 126919.10053 [K A^6], shift/k_B: -0.04250 [K]
  shOgg -   shOgs [BUCKINGHAM] p_0/k_B: 264165198.98242 [K], p_1:  6.71141 [A^-1], p_2/k_B: 126919.10053 [K A^6], shift/k_B: -0.04250 [K]
  shOgg -       F [LENNARD_JONES] p_0/k_B:  43.97295 [K], p_1: 3.19660 [A], shift/k_B:  -0.06282502 [K], tailcorrection: no
  shOgg -     shF [BUCKINGHAM] p_0/k_B: 19437564.06148 [K], p_1:  3.73134 [A^-1], p_2/k_B:  0.00000 [K A^6], shift/k_B:  0.00000 [K]
  shOgg -      Si [BUCKINGHAM] p_0/k_B: 15262813.95177 [K], p_1:  3.14704 [A^-1], p_2/k_B: 117682.76464 [K A^6], shift/k_B: -0.03941 [K]
  shOgg -      Al [BUCKINGHAM] p_0/k_B: 13751351.29126 [K], p_1:  3.14704 [A^-1], p_2/k_B:  0.00000 [K A^6], shift/k_B:  0.00000 [K]
  shOgg -      Ge [BUCKINGHAM] p_0/k_B: 17376597.40336 [K], p_1:  3.07082 [A^-1], p_2/k_B: 195055.65364 [K A^6], shift/k_B: -0.06532 [K]
  shOgg -      C3 [LENNARD_JONES] p_0/k_B:  50.36247 [K], p_1: 3.38650 [A], shift/k_B:  -0.10170979 [K], tailcorrection: no
  shOgg -      C2 [LENNARD_JONES] p_0/k_B:  50.36247 [K], p_1: 3.38650 [A], shift/k_B:  -0.10170979 [K], tailcorrection: no
  shOgg -      C6 [LENNARD_JONES] p_0/k_B:  50.36247 [K], p_1: 3.38650 [A], shift/k_B:  -0.10170979 [K], tailcorrection: no
  shOgg -      C4 [LENNARD_JONES] p_0/k_B:  50.36247 [K], p_1: 3.38650 [A], shift/k_B:  -0.10170979 [K], tailcorrection: no
  shOgg -      C5 [LENNARD_JONES] p_0/k_B:  50.36247 [K], p_1: 3.38650 [A], shift/k_B:  -0.10170979 [K], tailcorrection: no
  shOgg -      H1 [LENNARD_JONES] p_0/k_B:  20.13438 [K], p_1: 3.07321 [A], shift/k_B:  -0.02271651 [K], tailcorrection: no
  shOgg -      H6 [LENNARD_JONES] p_0/k_B:  20.13438 [K], p_1: 3.07321 [A], shift/k_B:  -0.02271651 [K], tailcorrection: no
  shOgg -      N1 [LENNARD_JONES] p_0/k_B:  45.43465 [K], p_1: 3.28128 [A], shift/k_B:  -0.07593428 [K], tailcorrection: no
  shOgg -      N2 [LENNARD_JONES] p_0/k_B:  45.43465 [K], p_1: 3.28128 [A], shift/k_B:  -0.07593428 [K], tailcorrection: no
  shOss -   shOss [BUCKINGHAM] p_0/k_B: 264165198.98242 [K], p_1:  6.71141 [A^-1], p_2/k_B: 126919.10053 [K A^6], shift/k_B: -0.04250 [K]
  shOss -   shOgs [BUCKINGHAM] p_0/k_B: 264165198.98242 [K], p_1:  6.71141 [A^-1], p_2/k_B: 126919.10053 [K A^6], shift/k_B: -0.04250 [K]
  shOss -       F [LENNARD_JONES] p_0/k_B:  43.97295 [K], p_1: 3.19660 [A], shift/k_B:  -0.06282502 [K], tailcorrection: no
  shOss -     shF [BUCKINGHAM] p_0/k_B: 19437564.06148 [K], p_1:  3.73134 [A^-1], p_2/k_B:  0.00000 [K A^6], shift/k_B:  0.00000 [K]
  shOss -      Si [BUCKINGHAM] p_0/k_B: 15262813.95177 [K], p_1:  3.14704 [A^-1], p_2/k_B: 117682.76464 [K A^6], shift/k_B: -0.03941 [K]
  shOss -      Al [BUCKINGHAM] p_0/k_B: 13751351.29126 [K], p_1:  3.14704 [A^-1], p_2/k_B:  0.00000 [K A^6], shift/k_B:  0.00000 [K]
  shOss -      Ge [BUCKINGHAM] p_0/k_B: 17376597.40336 [K], p_1:  3.07082 [A^-1], p_2/k_B: 195055.65364 [K A^6], shift/k_B: -0.06532 [K]
  shOss -      C3 [LENNARD_JONES] p_0/k_B:  50.36247 [K], p_1: 3.38650 [A], shift/k_B:  -0.10170979 [K], tailcorrection: no
  shOss -      C2 [LENNARD_JONES] p_0/k_B:  50.36247 [K], p_1: 3.38650 [A], shift/k_B:  -0.10170979 [K], tailcorrection: no
  shOss -      C6 [LENNARD_JONES] p_0/k_B:  50.36247 [K], p_1: 3.38650 [A], shift/k_B:  -0.10170979 [K], tailcorrection: no
  shOss -      C4 [LENNARD_JONES] p_0/k_B:  50.36247 [K], p_1: 3.38650 [A], shift/k_B:  -0.10170979 [K], tailcorrection: no
  shOss -      C5 [LENNARD_JONES] p_0/k_B:  50.36247 [K], p_1: 3.38650 [A], shift/k_B:  -0.10170979 [K], tailcorrection: no
  shOss -      H1 [LENNARD_JONES] p_0/k_B:  20.13438 [K], p_1: 3.07321 [A], shift/k_B:  -0.02271651 [K], tailcorrection: no
  shOss -      H6 [LENNARD_JONES] p_0/k_B:  20.13438 [K], p_1: 3.07321 [A], shift/k_B:  -0.02271651 [K], tailcorrection: no
  shOss -      N1 [LENNARD_JONES] p_0/k_B:  45.43465 [K], p_1: 3.28128 [A], shift/k_B:  -0.07593428 [K], tailcorrection: no
  shOss -      N2 [LENNARD_JONES] p_0/k_B:  45.43465 [K], p_1: 3.28128 [A], shift/k_B:  -0.07593428 [K], tailcorrection: no
  shOgs -   shOgs [BUCKINGHAM] p_0/k_B: 264165198.98242 [K], p_1:  6.71141 [A^-1], p_2/k_B: 126919.10053 [K A^6], shift/k_B: -0.04250 [K]
  shOgs -       F [LENNARD_JONES] p_0/k_B:  43.97295 [K], p_1: 3.19660 [A], shift/k_B:  -0.06282502 [K], tailcorrection: no
  shOgs -     shF [BUCKINGHAM] p_0/k_B: 19437564.06148 [K], p_1:  3.73134 [A^-1], p_2/k_B:  0.00000 [K A^6], shift/k_B:  0.00000 [K]
  shOgs -      Si [BUCKINGHAM] p_0/k_B: 15262813.95177 [K], p_1:  3.14704 [A^-1], p_2/k_B: 117682.76464 [K A^6], shift/k_B: -0.03941 [K]
  shOgs -      Al [BUCKINGHAM] p_0/k_B: 13751351.29126 [K], p_1:  3.14704 [A^-1], p_2/k_B:  0.00000 [K A^6], shift/k_B:  0.00000 [K]
  shOgs -      Ge [BUCKINGHAM] p_0/k_B: 17376597.40336 [K], p_1:  3.07082 [A^-1], p_2/k_B: 195055.65364 [K A^6], shift/k_B: -0.06532 [K]
  shOgs -      C3 [LENNARD_JONES] p_0/k_B:  50.36247 [K], p_1: 3.38650 [A], shift/k_B:  -0.10170979 [K], tailcorrection: no
  shOgs -      C2 [LENNARD_JONES] p_0/k_B:  50.36247 [K], p_1: 3.38650 [A], shift/k_B:  -0.10170979 [K], tailcorrection: no
  shOgs -      C6 [LENNARD_JONES] p_0/k_B:  50.36247 [K], p_1: 3.38650 [A], shift/k_B:  -0.10170979 [K], tailcorrection: no
  shOgs -      C4 [LENNARD_JONES] p_0/k_B:  50.36247 [K], p_1: 3.38650 [A], shift/k_B:  -0.10170979 [K], tailcorrection: no
  shOgs -      C5 [LENNARD_JONES] p_0/k_B:  50.36247 [K], p_1: 3.38650 [A], shift/k_B:  -0.10170979 [K], tailcorrection: no
  shOgs -      H1 [LENNARD_JONES] p_0/k_B:  20.13438 [K], p_1: 3.07321 [A], shift/k_B:  -0.02271651 [K], tailcorrection: no
  shOgs -      H6 [LENNARD_JONES] p_0/k_B:  20.13438 [K], p_1: 3.07321 [A], shift/k_B:  -0.02271651 [K], tailcorrection: no
  shOgs -      N1 [LENNARD_JONES] p_0/k_B:  45.43465 [K], p_1: 3.28128 [A], shift/k_B:  -0.07593428 [K], tailcorrection: no
  shOgs -      N2 [LENNARD_JONES] p_0/k_B:  45.43465 [K], p_1: 3.28128 [A], shift/k_B:  -0.07593428 [K], tailcorrection: no
      F -       F [LENNARD_JONES] p_0/k_B:  36.48340 [K], p_1: 3.09320 [A], shift/k_B:  -0.04279455 [K], tailcorrection: no
      F -      Si [LENNARD_JONES] p_0/k_B:  28.33081 [K], p_1: 2.69660 [A], shift/k_B:  -0.01459065 [K], tailcorrection: no
      F -      Ge [LENNARD_JONES] p_0/k_B:  28.33081 [K], p_1: 2.69660 [A], shift/k_B:  -0.01459065 [K], tailcorrection: no
      F -      C3 [LENNARD_JONES] p_0/k_B:  41.78465 [K], p_1: 3.28309 [A], shift/k_B:  -0.07006608 [K], tailcorrection: no
      F -      C2 [LENNARD_JONES] p_0/k_B:  41.78465 [K], p_1: 3.28309 [A], shift/k_B:  -0.07006608 [K], tailcorrection: no
      F -      C6 [LENNARD_JONES] p_0/k_B:  41.78465 [K], p_1: 3.28309 [A], shift/k_B:  -0.07006608 [K], tailcorrection: no
      F -      C4 [LENNARD_JONES] p_0/k_B:  41.78465 [K], p_1: 3.28309 [A], shift/k_B:  -0.07006608 [K], tailcorrection: no
      F -      C5 [LENNARD_JONES] p_0/k_B:  41.78465 [K], p_1: 3.28309 [A], shift/k_B:  -0.07006608 [K], tailcorrection: no
      F -      H1 [LENNARD_JONES] p_0/k_B:  16.70506 [K], p_1: 2.96981 [A], shift/k_B:  -0.01534945 [K], tailcorrection: no
      F -      H6 [LENNARD_JONES] p_0/k_B:  16.70506 [K], p_1: 2.96981 [A], shift/k_B:  -0.01534945 [K], tailcorrection: no
      F -      N1 [LENNARD_JONES] p_0/k_B:  37.69614 [K], p_1: 3.17788 [A], shift/k_B:  -0.05199296 [K], tailcorrection: no
      F -      N2 [LENNARD_JONES] p_0/k_B:  37.69614 [K], p_1: 3.17788 [A], shift/k_B:  -0.05199296 [K], tailcorrection: no
    shF -     shF [BUCKINGHAM] p_0/k_B: 6271052.63465 [K], p_1:  3.80967 [A^-1], p_2/k_B:  0.00000 [K A^6], shift/k_B:  0.00000 [K]
    shF -      Si [BUCKINGHAM] p_0/k_B: 11335626.11208 [K], p_1:  3.54610 [A^-1], p_2/k_B:  0.00000 [K A^6], shift/k_B:  0.00000 [K]
    shF -      Al [BUCKINGHAM] p_0/k_B: 9300210.62511 [K], p_1:  3.41612 [A^-1], p_2/k_B:  0.00000 [K A^6], shift/k_B:  0.00000 [K]
    shF -      Ge [BUCKINGHAM] p_0/k_B: 7908162.84248 [K], p_1:  3.12500 [A^-1], p_2/k_B:  0.00000 [K A^6], shift/k_B:  0.00000 [K]
     Si -      Si [LENNARD_JONES] p_0/k_B:  22.00000 [K], p_1: 2.30000 [A], shift/k_B:  -0.00436255 [K], tailcorrection: no
     Si -      Ge [LENNARD_JONES] p_0/k_B:  22.00000 [K], p_1: 2.30000 [A], shift/k_B:  -0.00436255 [K], tailcorrection: no
     Si -      C3 [LENNARD_JONES] p_0/k_B:  32.44744 [K], p_1: 2.88650 [A], shift/k_B:  -0.02513586 [K], tailcorrection: no
     Si -      C2 [LENNARD_JONES] p_0/k_B:  32.44744 [K], p_1: 2.88650 [A], shift/k_B:  -0.02513586 [K], tailcorrection: no
     Si -      C6 [LENNARD_JONES] p_0/k_B:  32.44744 [K], p_1: 2.88650 [A], shift/k_B:  -0.02513586 [K], tailcorrection: no
     Si -      C4 [LENNARD_JONES] p_0/k_B:  32.44744 [K], p_1: 2.88650 [A], shift/k_B:  -0.02513586 [K], tailcorrection: no
     Si -      C5 [LENNARD_JONES] p_0/k_B:  32.44744 [K], p_1: 2.88650 [A], shift/k_B:  -0.02513586 [K], tailcorrection: no
     Si -      H1 [LENNARD_JONES] p_0/k_B:  12.97214 [K], p_1: 2.57321 [A], shift/k_B:  -0.00504421 [K], tailcorrection: no
     Si -      H6 [LENNARD_JONES] p_0/k_B:  12.97214 [K], p_1: 2.57321 [A], shift/k_B:  -0.00504421 [K], tailcorrection: no
     Si -      N1 [LENNARD_JONES] p_0/k_B:  29.27255 [K], p_1: 2.78128 [A], shift/k_B:  -0.01814822 [K], tailcorrection: no
     Si -      N2 [LENNARD_JONES] p_0/k_B:  29.27255 [K], p_1: 2.78128 [A], shift/k_B:  -0.01814822 [K], tailcorrection: no
     Ge -      Ge [LENNARD_JONES] p_0/k_B:  22.00000 [K], p_1: 2.30000 [A], shift/k_B:  -0.00436255 [K], tailcorrection: no
     Ge -      C3 [LENNARD_JONES] p_0/k_B:  32.44744 [K], p_1: 2.88650 [A], shift/k_B:  -0.02513586 [K], tailcorrection: no
     Ge -      C2 [LENNARD_JONES] p_0/k_B:  32.44744 [K], p_1: 2.88650 [A], shift/k_B:  -0.02513586 [K], tailcorrection: no
     Ge -      C6 [LENNARD_JONES] p_0/k_B:  32.44744 [K], p_1: 2.88650 [A], shift/k_B:  -0.02513586 [K], tailcorrection: no
     Ge -      C4 [LENNARD_JONES] p_0/k_B:  32.44744 [K], p_1: 2.88650 [A], shift/k_B:  -0.02513586 [K], tailcorrection: no
     Ge -      C5 [LENNARD_JONES] p_0/k_B:  32.44744 [K], p_1: 2.88650 [A], shift/k_B:  -0.02513586 [K], tailcorrection: no
     Ge -      H1 [LENNARD_JONES] p_0/k_B:  12.97214 [K], p_1: 2.57321 [A], shift/k_B:  -0.00504421 [K], tailcorrection: no
     Ge -      H6 [LENNARD_JONES] p_0/k_B:  12.97214 [K], p_1: 2.57321 [A], shift/k_B:  -0.00504421 [K], tailcorrection: no
     Ge -      N1 [LENNARD_JONES] p_0/k_B:  29.27255 [K], p_1: 2.78128 [A], shift/k_B:  -0.01814822 [K], tailcorrection: no
     Ge -      N2 [LENNARD_JONES] p_0/k_B:  29.27255 [K], p_1: 2.78128 [A], shift/k_B:  -0.01814822 [K], tailcorrection: no
     C3 -      C3 [LENNARD_JONES] p_0/k_B:  47.85620 [K], p_1: 3.47299 [A], shift/k_B:  -0.11242855 [K], tailcorrection: no
     C3 -      C2 [LENNARD_JONES] p_0/k_B:  47.85620 [K], p_1: 3.47299 [A], shift/k_B:  -0.11242855 [K], tailcorrection: no
     C3 -      C6 [LENNARD_JONES] p_0/k_B:  47.85620 [K], p_1: 3.47299 [A], shift/k_B:  -0.11242855 [K], tailcorrection: no
     C3 -      C4 [LENNARD_JONES] p_0/k_B:  47.85620 [K], p_1: 3.47299 [A], shift/k_B:  -0.11242855 [K], tailcorrection: no
     C3 -      C5 [LENNARD_JONES] p_0/k_B:  47.85620 [K], p_1: 3.47299 [A], shift/k_B:  -0.11242855 [K], tailcorrection: no
     C3 -      H1 [LENNARD_JONES] p_0/k_B:  19.13240 [K], p_1: 3.15970 [A], shift/k_B:  -0.02549626 [K], tailcorrection: no
     C3 -      H6 [LENNARD_JONES] p_0/k_B:  19.13240 [K], p_1: 3.15970 [A], shift/k_B:  -0.02549626 [K], tailcorrection: no
     C3 -      N1 [LENNARD_JONES] p_0/k_B:  43.17361 [K], p_1: 3.36777 [A], shift/k_B:  -0.08434067 [K], tailcorrection: no
     C3 -      N2 [LENNARD_JONES] p_0/k_B:  43.17361 [K], p_1: 3.36777 [A], shift/k_B:  -0.08434067 [K], tailcorrection: no
     C2 -      C2 [LENNARD_JONES] p_0/k_B:  47.85620 [K], p_1: 3.47299 [A], shift/k_B:  -0.11242855 [K], tailcorrection: no
     C2 -      C6 [LENNARD_JONES] p_0/k_B:  47.85620 [K], p_1: 3.47299 [A], shift/k_B:  -0.11242855 [K], tailcorrection: no
     C2 -      C4 [LENNARD_JONES] p_0/k_B:  47.85620 [K], p_1: 3.47299 [A], shift/k_B:  -0.11242855 [K], tailcorrection: no
     C2 -      C5 [LENNARD_JONES] p_0/k_B:  47.85620 [K], p_1: 3.47299 [A], shift/k_B:  -0.11242855 [K], tailcorrection: no
     C2 -      H1 [LENNARD_JONES] p_0/k_B:  19.13240 [K], p_1: 3.15970 [A], shift/k_B:  -0.02549626 [K], tailcorrection: no
     C2 -      H6 [LENNARD_JONES] p_0/k_B:  19.13240 [K], p_1: 3.15970 [A], shift/k_B:  -0.02549626 [K], tailcorrection: no
     C2 -      N1 [LENNARD_JONES] p_0/k_B:  43.17361 [K], p_1: 3.36777 [A], shift/k_B:  -0.08434067 [K], tailcorrection: no
     C2 -      N2 [LENNARD_JONES] p_0/k_B:  43.17361 [K], p_1: 3.36777 [A], shift/k_B:  -0.08434067 [K], tailcorrection: no
     C6 -      C6 [LENNARD_JONES] p_0/k_B:  47.85620 [K], p_1: 3.47299 [A], shift/k_B:  -0.11242855 [K], tailcorrection: no
     C6 -      C4 [LENNARD_JONES] p_0/k_B:  47.85620 [K], p_1: 3.47299 [A], shift/k_B:  -0.11242855 [K], tailcorrection: no
     C6 -      C5 [LENNARD_JONES] p_0/k_B:  47.85620 [K], p_1: 3.47299 [A], shift/k_B:  -0.11242855 [K], tailcorrection: no
     C6 -      H1 [LENNARD_JONES] p_0/k_B:  19.13240 [K], p_1: 3.15970 [A], shift/k_B:  -0.02549626 [K], tailcorrection: no
     C6 -      H6 [LENNARD_JONES] p_0/k_B:  19.13240 [K], p_1: 3.15970 [A], shift/k_B:  -0.02549626 [K], tailcorrection: no
     C6 -      N1 [LENNARD_JONES] p_0/k_B:  43.17361 [K], p_1: 3.36777 [A], shift/k_B:  -0.08434067 [K], tailcorrection: no
     C6 -      N2 [LENNARD_JONES] p_0/k_B:  43.17361 [K], p_1: 3.36777 [A], shift/k_B:  -0.08434067 [K], tailcorrection: no
     C4 -      C4 [LENNARD_JONES] p_0/k_B:  47.85620 [K], p_1: 3.47299 [A], shift/k_B:  -0.11242855 [K], tailcorrection: no
     C4 -      C5 [LENNARD_JONES] p_0/k_B:  47.85620 [K], p_1: 3.47299 [A], shift/k_B:  -0.11242855 [K], tailcorrection: no
     C4 -      H1 [LENNARD_JONES] p_0/k_B:  19.13240 [K], p_1: 3.15970 [A], shift/k_B:  -0.02549626 [K], tailcorrection: no
     C4 -      H6 [LENNARD_JONES] p_0/k_B:  19.13240 [K], p_1: 3.15970 [A], shift/k_B:  -0.02549626 [K], tailcorrection: no
     C4 -      N1 [LENNARD_JONES] p_0/k_B:  43.17361 [K], p_1: 3.36777 [A], shift/k_B:  -0.08434067 [K], tailcorrection: no
     C4 -      N2 [LENNARD_JONES] p_0/k_B:  43.17361 [K], p_1: 3.36777 [A], shift/k_B:  -0.08434067 [K], tailcorrection: no
     C5 -      C5 [LENNARD_JONES] p_0/k_B:  47.85620 [K], p_1: 3.47299 [A], shift/k_B:  -0.11242855 [K], tailcorrection: no
     C5 -      H1 [LENNARD_JONES] p_0/k_B:  19.13240 [K], p_1: 3.15970 [A], shift/k_B:  -0.02549626 [K], tailcorrection: no
     C5 -      H6 [LENNARD_JONES] p_0/k_B:  19.13240 [K], p_1: 3.15970 [A], shift/k_B:  -0.02549626 [K], tailcorrection: no
     C5 -      N1 [LENNARD_JONES] p_0/k_B:  43.17361 [K], p_1: 3.36777 [A], shift/k_B:  -0.08434067 [K], tailcorrection: no
     C5 -      N2 [LENNARD_JONES] p_0/k_B:  43.17361 [K], p_1: 3.36777 [A], shift/k_B:  -0.08434067 [K], tailcorrection: no
     H1 -      H1 [LENNARD_JONES] p_0/k_B:   7.64893 [K], p_1: 2.84642 [A], shift/k_B:  -0.00544866 [K], tailcorrection: no
     H1 -      H6 [LENNARD_JONES] p_0/k_B:   7.64893 [K], p_1: 2.84642 [A], shift/k_B:  -0.00544866 [K], tailcorrection: no
     H1 -      N1 [LENNARD_JONES] p_0/k_B:  17.26035 [K], p_1: 3.05449 [A], shift/k_B:  -0.01877311 [K], tailcorrection: no
     H1 -      N2 [LENNARD_JONES] p_0/k_B:  17.26035 [K], p_1: 3.05449 [A], shift/k_B:  -0.01877311 [K], tailcorrection: no
     H6 -      H6 [LENNARD_JONES] p_0/k_B:   7.64893 [K], p_1: 2.84642 [A], shift/k_B:  -0.00544866 [K], tailcorrection: no
     H6 -      N1 [LENNARD_JONES] p_0/k_B:  17.26035 [K], p_1: 3.05449 [A], shift/k_B:  -0.01877311 [K], tailcorrection: no
     H6 -      N2 [LENNARD_JONES] p_0/k_B:  17.26035 [K], p_1: 3.05449 [A], shift/k_B:  -0.01877311 [K], tailcorrection: no
     N1 -      N1 [LENNARD_JONES] p_0/k_B:  38.94920 [K], p_1: 3.26256 [A], shift/k_B:  -0.06289942 [K], tailcorrection: no
     N1 -      N2 [LENNARD_JONES] p_0/k_B:  38.94920 [K], p_1: 3.26256 [A], shift/k_B:  -0.06289942 [K], tailcorrection: no
     N2 -      N2 [LENNARD_JONES] p_0/k_B:  38.94920 [K], p_1: 3.26256 [A], shift/k_B:  -0.06289942 [K], tailcorrection: no


MoleculeDefinitions:
===========================================================================
Component 0 [2e134tmi_flexible] (Cation molecule)

	MoleculeDefinitions: Local
	Component contains (at least some) atoms which are charged
	Component contains no atoms with point dipoles (polarization)
	Component has a net charge of 1.000000

	Ideal chain Rosenbluth weight: 1
	Ideal chain total energy: 0.000000

	Critical temparure [K]: 0.000000
	Critical pressure [Pa]: 0.000000
	Acentric factor [-]: 0.000000

	RXMC partition factor [-]: 0.000000

	Vapour=stable, Liquid=metastable

	MolFraction:           1.0000000000 [-]
	Compressibility:       0.0000000000 [-]

	Density of the bulk fluid phase:       0.0000000000 [kg/m^3]


	Amount of excess molecules:       0.0000000000 [-]

	Conversion factor molecules/unit cell -> mol/kg:       0.2018230680 [-]
	Conversion factor molecules/unit cell -> gr/gr:      28.0801641494 [-]
	Conversion factor molecules/unit cell -> cm^3 STP/gr:       4.5236573507 [-]
	Conversion factor molecules/unit cell -> cm^3 STP/cm^3:      10.2176408463 [-]
	Conversion factor mol/kg -> cm^3 STP/gr:      22.4139757476 [-]
	Conversion factor mol/kg -> cm^3 STP/cm^3:      50.6267244344 [-]

	Partial pressure: -16605402.00000000000000 [Pa]
	                    -124540.51499999999942 [Torr]
	                       -166.05402000000001 [bar]
	                       -163.88257586972614 [atm]

	Fugacity coefficient:      -1.0000000000 [-]

	Partial fugacity:  16605402.00000000000000 [Pa]
	                     124540.51499999999942 [Torr]
	                        166.05402000000001 [bar]
	                        163.88257586972614 [atm]

	Molecule contains 25 number of atoms
		atom:    0  is of type:   14 [        C6] (group: 0)
		atom:    1  is of type:   19 [        N1] (group: 0)
		atom:    2  is of type:   15 [        C4] (group: 0)
		atom:    3  is of type:   20 [        N2] (group: 0)
		atom:    4  is of type:   16 [        C5] (group: 0)
		atom:    5  is of type:   13 [        C2] (group: 1)
		atom:    6  is of type:   12 [        C3] (group: 1)
		atom:    7  is of type:   17 [        H1] (group: 1)
		atom:    8  is of type:   17 [        H1] (group: 1)
		atom:    9  is of type:   17 [        H1] (group: 1)
		atom:   10  is of type:   17 [        H1] (group: 1)
		atom:   11  is of type:   12 [        C3] (group: 1)
		atom:   12  is of type:   17 [        H1] (group: 1)
		atom:   13  is of type:   17 [        H1] (group: 1)
		atom:   14  is of type:   18 [        H6] (group: 1)
		atom:   15  is of type:   12 [        C3] (group: 1)
		atom:   16  is of type:   17 [        H1] (group: 1)
		atom:   17  is of type:   17 [        H1] (group: 1)
		atom:   18  is of type:   12 [        C3] (group: 1)
		atom:   19  is of type:   17 [        H1] (group: 1)
		atom:   20  is of type:   17 [        H1] (group: 1)
		atom:   21  is of type:   17 [        H1] (group: 1)
		atom:   22  is of type:   17 [        H1] (group: 1)
		atom:   23  is of type:   17 [        H1] (group: 1)
		atom:   24  is of type:   17 [        H1] (group: 1)

	Molecule contains 0 chirality centers

	Molecule contains 2 number of groups

		group: 0 containing: 5 elements
		-------------------------------------------------
		the group is rigid and nonlinear
		Mass: 64.013480 [a.u.]
		Mass: 29.181211 [kg/m^3]

		Rotational Degrees of freedom: 3
		Diagonalized inertia vector:      85.7312749993
		                                  46.7604321139
		                                  38.9709722831
		number of atoms: 5
			element: 0 atom: 0 [        C6] Charge: -0.150000 Anisotropy: 0.000000 Position:  0.000820  0.928025  0.714616 Connectivity: 3 (1 4 14 )
			element: 1 atom: 1 [        N1] Charge: -0.030000 Anisotropy: 0.000000 Position: -0.001218 -0.360809  1.112281 Connectivity: 3 (0 2 6 )
			element: 2 atom: 2 [        C4] Charge:  0.620000 Anisotropy: 0.000000 Position:  0.001487 -1.098293 -0.025150 Connectivity: 3 (1 3 5 )
			element: 3 atom: 3 [        N2] Charge: -0.200000 Anisotropy: 0.000000 Position: -0.000814 -0.312463 -1.133340 Connectivity: 3 (2 4 11 )
			element: 4 atom: 4 [        C5] Charge:  0.610000 Anisotropy: 0.000000 Position:  0.000065  0.956130 -0.664885 Connectivity: 3 (0 3 15 )
		number of permanent dipoles: 0
		number of polarizabilities: 0

		Dipole:           0.5075704328 [D]
		Quadrupole:      -2.5273347601       7.1722915051      -4.6449567451 [D Angstrom]
		Quadrupole tensor [D Angstrom]
				      -2.5273402357      -0.0083031347      -0.0020271328
				      -0.0083031347       5.7791510993      -3.8107973901
				      -0.0020271328      -3.8107973901      -3.2518108635

		group: 1 containing: 20 elements
		-------------------------------------------------
		the group is modelled as flexible, i.e. no constraints
		Mass: 75.119100 [a.u.]
		Mass: 34.243824 [kg/m^3]

		Rotational Degrees of freedom: 0
		Diagonalized inertia vector:       0.0000000000
		                                   0.0000000000
		                                   0.0000000000
		element: 0 atom: 5 [        C2] Charge: -0.120000 Anisotropy: 0.000000 Connectivity: 4 (2 16 17 18 )
		element: 1 atom: 6 [        C3] Charge: -0.180000 Anisotropy: 0.000000 Connectivity: 4 (1 7 8 9 )
		element: 2 atom: 7 [        H1] Charge:  0.060000 Anisotropy: 0.000000 Connectivity: 1 (6 )
		element: 3 atom: 8 [        H1] Charge:  0.060000 Anisotropy: 0.000000 Connectivity: 1 (6 )
		element: 4 atom: 9 [        H1] Charge:  0.060000 Anisotropy: 0.000000 Connectivity: 1 (6 )
		element: 5 atom: 10 [        H1] Charge:  0.060000 Anisotropy: 0.000000 Connectivity: 1 (11 )
		element: 6 atom: 11 [        C3] Charge: -0.180000 Anisotropy: 0.000000 Connectivity: 4 (3 10 12 13 )
		element: 7 atom: 12 [        H1] Charge:  0.060000 Anisotropy: 0.000000 Connectivity: 1 (11 )
		element: 8 atom: 13 [        H1] Charge:  0.060000 Anisotropy: 0.000000 Connectivity: 1 (11 )
		element: 9 atom: 14 [        H6] Charge:  0.150000 Anisotropy: 0.000000 Connectivity: 1 (0 )
		element: 10 atom: 15 [        C3] Charge: -0.180000 Anisotropy: 0.000000 Connectivity: 4 (4 22 23 24 )
		element: 11 atom: 16 [        H1] Charge:  0.060000 Anisotropy: 0.000000 Connectivity: 1 (5 )
		element: 12 atom: 17 [        H1] Charge:  0.060000 Anisotropy: 0.000000 Connectivity: 1 (5 )
		element: 13 atom: 18 [        C3] Charge: -0.180000 Anisotropy: 0.000000 Connectivity: 4 (5 19 20 21 )
		element: 14 atom: 19 [        H1] Charge:  0.060000 Anisotropy: 0.000000 Connectivity: 1 (18 )
		element: 15 atom: 20 [        H1] Charge:  0.060000 Anisotropy: 0.000000 Connectivity: 1 (18 )
		element: 16 atom: 21 [        H1] Charge:  0.060000 Anisotropy: 0.000000 Connectivity: 1 (18 )
		element: 17 atom: 22 [        H1] Charge:  0.060000 Anisotropy: 0.000000 Connectivity: 1 (15 )
		element: 18 atom: 23 [        H1] Charge:  0.060000 Anisotropy: 0.000000 Connectivity: 1 (15 )
		element: 19 atom: 24 [        H1] Charge:  0.060000 Anisotropy: 0.000000 Connectivity: 1 (15 )

		Dipole:           0.0000000000 [D]
		Quadrupole:       0.0000000000       0.0000000000       0.0000000000 [D Angstrom]
		Quadrupole tensor [D Angstrom]
				       0.0000000000       0.0000000000       0.0000000000
				       0.0000000000       0.0000000000       0.0000000000
				       0.0000000000       0.0000000000       0.0000000000

	Starting bead for growth               : 0

	Degrees of freedom                     : 0
	Translational degrees of freedom       : 0
	Rotational degrees of freedom          : 0
	Vibrational degrees of freedom         : 0
	Constraint degrees of freedom          : 0

	Number of atoms                        : 25

	Number of constraint bonds             : 20
	Number of constraint bends             : 0
	Number of constraint inversion bends   : 0
	Number of constraint torsions          : 0
	Number of constraint improper torsions : 0
	Number of constraint improper torsions : 0

	Number of bonds                        : 25
	Number of Urey-Bradleys                : 0
	Number of bends                        : 39
	Number of inversion bends              : 0
	Number of torsions                     : 12
	Number of improper torsions            : 0
	Number of improper torsions            : 0

	Number of bond/bond cross terms        : 0
	Number of bond/bend cross terms        : 0
	Number of bend/bend cross terms        : 0
	Number of stretch/torsion cross terms  : 0
	Number of bend/torsion cross terms     : 0

	Number of charges                      : 25
	Number of bond-dipoles                 : 0

	Number of intra Van der Waals                             : 0
	Number of intra charge-charge Coulomb                     : 0
	Number of intra charge-bonddipole Coulomb                 : 0
	Number of intra bonddipole-bonddipole Coulomb             : 0

	Number of excluded intra charge-charge Coulomb                     : 300
	Number of excluded intra charge-bonddipole Coulomb                 : 0
	Number of excluded intra bonddipole-bonddipole Coulomb             : 0

	Number of cbmc-config moves                               : 0

	Particle Moves:             
		ProbabilityTranslationMove:                  7.692308
			TranslationDirection:      XYZ
		Percentage of random translation moves:            7.692308
		Percentage of rotation moves:                      7.692308
		Percentage of random rotation moves:               0.000000
		Percentage of partial reinsertion moves:           0.000000
		Percentage of reinsertion moves:                   76.923077
		Percentage of reinsertion-in-place moves:          0.000000
		Percentage of reinsertion-in-plane moves:          0.000000
		Percentage of identity-change moves:               0.000000
		Percentage of swap (insert/delete) moves:          0.000000
		Percentage of CF swap lambda moves:                0.000000
		Percentage of CB/CFMC swap lambda moves:           0.000000
		Percentage of Widom insertion moves:               0.000000
		Percentage of Gibbs Widom insertion moves:         0.000000
		Percentage of surface-area moves:                  0.000000
		Percentage of Gibbs particle-transfer moves:       0.000000
		Percentage of Gibbs identity-change moves:         0.000000
		Percentage of CF Gibbs lambda-transfer moves:      0.000000
		Percentage of CB/CFMC Gibbs lambda-transfer moves: 0.000000
		Percentage of exchange frac./int. particle moves:  0.000000
		Percentage of fractional mol. to other box moves:  0.000000
		Percentage of lambda-change moves:                 0.000000
		Percentage of fractional to integer moves:         0.000000

	System Moves:
		Percentage of parallel-tempering moves:            0.000000
		Percentage of hyper-parallel-tempering moves:      0.000000
		Percentage of parallel-mol-fraction moves:         0.000000
			   Component A: 0 B: 1
		Percentage of chiral inversion moves:              0.000000
		Percentage of Hybrid-NVE moves:                    0.000000
		Percentage of Hybrid-NPH moves:                    0.000000
		Percentage of Hybrid-NPHPR moves:                  0.000000
		Percentage of volume-change moves:                 0.000000
		Percentage of box-shape-change moves:              0.000000
		Percentage of Gibbs volume-change moves:           0.000000
		Percentage of framework-change moves:              0.000000
		Percentage of framework-shift moves:               0.000000
		Percentage of reactive MC moves:                   0.000000

	Moves are restricted: No
	No biased sampling used for this component

	Number of Bonds: 25
	--------------------------------------------
	Bond interaction 0: A=0 B=1 Type:RIGID_BOND
		r_0=1.3487895003       [A]
	Bond interaction 1: A=1 B=2 Type:RIGID_BOND
		r_0=1.3555959438       [A]
	Bond interaction 2: A=2 B=3 Type:RIGID_BOND
		r_0=1.3585365995       [A]
	Bond interaction 3: A=3 B=4 Type:RIGID_BOND
		r_0=1.3523234644       [A]
	Bond interaction 4: A=4 B=0 Type:RIGID_BOND
		r_0=1.3797867023       [A]
	Bond interaction 5: A=6 B=7 Type:FIXED_BOND
		r_0=1.1119838308       [A]
	Bond interaction 6: A=6 B=9 Type:FIXED_BOND
		r_0=1.1136309137       [A]
	Bond interaction 7: A=6 B=8 Type:FIXED_BOND
		r_0=1.1129235720       [A]
	Bond interaction 8: A=6 B=1 Type:FIXED_BOND
		r_0=1.4675676354       [A]
	Bond interaction 9: A=2 B=5 Type:FIXED_BOND
		r_0=1.5062587312       [A]
	Bond interaction 10: A=5 B=18 Type:FIXED_BOND
		r_0=1.5414095091       [A]
	Bond interaction 11: A=5 B=17 Type:FIXED_BOND
		r_0=1.1099156118       [A]
	Bond interaction 12: A=5 B=16 Type:FIXED_BOND
		r_0=1.1114615660       [A]
	Bond interaction 13: A=18 B=20 Type:FIXED_BOND
		r_0=1.1143426171       [A]
	Bond interaction 14: A=18 B=19 Type:FIXED_BOND
		r_0=1.1140461295       [A]
	Bond interaction 15: A=18 B=21 Type:FIXED_BOND
		r_0=1.1119405004       [A]
	Bond interaction 16: A=3 B=11 Type:FIXED_BOND
		r_0=1.4713663393       [A]
	Bond interaction 17: A=11 B=13 Type:FIXED_BOND
		r_0=1.1125590952       [A]
	Bond interaction 18: A=11 B=12 Type:FIXED_BOND
		r_0=1.1087336841       [A]
	Bond interaction 19: A=11 B=10 Type:FIXED_BOND
		r_0=1.1129695216       [A]
	Bond interaction 20: A=4 B=15 Type:FIXED_BOND
		r_0=1.4963901238       [A]
	Bond interaction 21: A=15 B=24 Type:FIXED_BOND
		r_0=1.1098797673       [A]
	Bond interaction 22: A=15 B=23 Type:FIXED_BOND
		r_0=1.1070739865       [A]
	Bond interaction 23: A=15 B=22 Type:FIXED_BOND
		r_0=1.1099161858       [A]
	Bond interaction 24: A=0 B=14 Type:FIXED_BOND
		r_0=1.0833976135       [A]

	Number of Bends: 39
	--------------------------------------------
	Bend interaction 0: A=6 B=1 C=0 Type:HARMONIC_BEND
		HARMONIC_BEND: p_0/k_B=50321.940000 [K/rad^2], p_1=120.000000 [degrees]
	Bend interaction 1: A=6 B=1 C=2 Type:HARMONIC_BEND
		HARMONIC_BEND: p_0/k_B=50321.940000 [K/rad^2], p_1=120.000000 [degrees]
	Bend interaction 2: A=1 B=2 C=5 Type:HARMONIC_BEND
		HARMONIC_BEND: p_0/k_B=50321.940000 [K/rad^2], p_1=120.000000 [degrees]
	Bend interaction 3: A=5 B=2 C=3 Type:HARMONIC_BEND
		HARMONIC_BEND: p_0/k_B=50321.940000 [K/rad^2], p_1=120.000000 [degrees]
	Bend interaction 4: A=2 B=3 C=11 Type:HARMONIC_BEND
		HARMONIC_BEND: p_0/k_B=50321.940000 [K/rad^2], p_1=120.000000 [degrees]
	Bend interaction 5: A=11 B=3 C=4 Type:HARMONIC_BEND
		HARMONIC_BEND: p_0/k_B=50321.940000 [K/rad^2], p_1=120.000000 [degrees]
	Bend interaction 6: A=3 B=4 C=15 Type:HARMONIC_BEND
		HARMONIC_BEND: p_0/k_B=50321.940000 [K/rad^2], p_1=120.000000 [degrees]
	Bend interaction 7: A=15 B=4 C=0 Type:HARMONIC_BEND
		HARMONIC_BEND: p_0/k_B=50321.940000 [K/rad^2], p_1=120.000000 [degrees]
	Bend interaction 8: A=4 B=0 C=14 Type:HARMONIC_BEND
		HARMONIC_BEND: p_0/k_B=50321.940000 [K/rad^2], p_1=120.000000 [degrees]
	Bend interaction 9: A=14 B=0 C=1 Type:HARMONIC_BEND
		HARMONIC_BEND: p_0/k_B=50321.940000 [K/rad^2], p_1=120.000000 [degrees]
	Bend interaction 10: A=1 B=6 C=9 Type:HARMONIC_BEND
		HARMONIC_BEND: p_0/k_B=62500.000000 [K/rad^2], p_1=109.470000 [degrees]
	Bend interaction 11: A=1 B=6 C=8 Type:HARMONIC_BEND
		HARMONIC_BEND: p_0/k_B=62500.000000 [K/rad^2], p_1=109.470000 [degrees]
	Bend interaction 12: A=1 B=6 C=7 Type:HARMONIC_BEND
		HARMONIC_BEND: p_0/k_B=62500.000000 [K/rad^2], p_1=109.470000 [degrees]
	Bend interaction 13: A=9 B=6 C=7 Type:HARMONIC_BEND
		HARMONIC_BEND: p_0/k_B=62500.000000 [K/rad^2], p_1=109.470000 [degrees]
	Bend interaction 14: A=9 B=6 C=8 Type:HARMONIC_BEND
		HARMONIC_BEND: p_0/k_B=62500.000000 [K/rad^2], p_1=109.470000 [degrees]
	Bend interaction 15: A=8 B=6 C=7 Type:HARMONIC_BEND
		HARMONIC_BEND: p_0/k_B=62500.000000 [K/rad^2], p_1=109.470000 [degrees]
	Bend interaction 16: A=17 B=5 C=16 Type:HARMONIC_BEND
		HARMONIC_BEND: p_0/k_B=62500.000000 [K/rad^2], p_1=109.470000 [degrees]
	Bend interaction 17: A=17 B=5 C=2 Type:HARMONIC_BEND
		HARMONIC_BEND: p_0/k_B=62500.000000 [K/rad^2], p_1=109.470000 [degrees]
	Bend interaction 18: A=16 B=5 C=2 Type:HARMONIC_BEND
		HARMONIC_BEND: p_0/k_B=62500.000000 [K/rad^2], p_1=109.470000 [degrees]
	Bend interaction 19: A=17 B=5 C=18 Type:HARMONIC_BEND
		HARMONIC_BEND: p_0/k_B=62500.000000 [K/rad^2], p_1=109.470000 [degrees]
	Bend interaction 20: A=16 B=5 C=18 Type:HARMONIC_BEND
		HARMONIC_BEND: p_0/k_B=62500.000000 [K/rad^2], p_1=109.470000 [degrees]
	Bend interaction 21: A=20 B=18 C=19 Type:HARMONIC_BEND
		HARMONIC_BEND: p_0/k_B=62500.000000 [K/rad^2], p_1=109.470000 [degrees]
	Bend interaction 22: A=20 B=18 C=21 Type:HARMONIC_BEND
		HARMONIC_BEND: p_0/k_B=62500.000000 [K/rad^2], p_1=109.470000 [degrees]
	Bend interaction 23: A=21 B=18 C=19 Type:HARMONIC_BEND
		HARMONIC_BEND: p_0/k_B=62500.000000 [K/rad^2], p_1=109.470000 [degrees]
	Bend interaction 24: A=21 B=18 C=5 Type:HARMONIC_BEND
		HARMONIC_BEND: p_0/k_B=62500.000000 [K/rad^2], p_1=109.470000 [degrees]
	Bend interaction 25: A=19 B=18 C=5 Type:HARMONIC_BEND
		HARMONIC_BEND: p_0/k_B=62500.000000 [K/rad^2], p_1=109.470000 [degrees]
	Bend interaction 26: A=20 B=18 C=5 Type:HARMONIC_BEND
		HARMONIC_BEND: p_0/k_B=62500.000000 [K/rad^2], p_1=109.470000 [degrees]
	Bend interaction 27: A=10 B=11 C=3 Type:HARMONIC_BEND
		HARMONIC_BEND: p_0/k_B=62500.000000 [K/rad^2], p_1=109.470000 [degrees]
	Bend interaction 28: A=12 B=11 C=3 Type:HARMONIC_BEND
		HARMONIC_BEND: p_0/k_B=62500.000000 [K/rad^2], p_1=109.470000 [degrees]
	Bend interaction 29: A=13 B=11 C=3 Type:HARMONIC_BEND
		HARMONIC_BEND: p_0/k_B=62500.000000 [K/rad^2], p_1=109.470000 [degrees]
	Bend interaction 30: A=13 B=11 C=12 Type:HARMONIC_BEND
		HARMONIC_BEND: p_0/k_B=62500.000000 [K/rad^2], p_1=109.470000 [degrees]
	Bend interaction 31: A=13 B=11 C=10 Type:HARMONIC_BEND
		HARMONIC_BEND: p_0/k_B=62500.000000 [K/rad^2], p_1=109.470000 [degrees]
	Bend interaction 32: A=10 B=11 C=12 Type:HARMONIC_BEND
		HARMONIC_BEND: p_0/k_B=62500.000000 [K/rad^2], p_1=109.470000 [degrees]
	Bend interaction 33: A=24 B=15 C=4 Type:HARMONIC_BEND
		HARMONIC_BEND: p_0/k_B=62500.000000 [K/rad^2], p_1=109.470000 [degrees]
	Bend interaction 34: A=23 B=15 C=4 Type:HARMONIC_BEND
		HARMONIC_BEND: p_0/k_B=62500.000000 [K/rad^2], p_1=109.470000 [degrees]
	Bend interaction 35: A=22 B=15 C=4 Type:HARMONIC_BEND
		HARMONIC_BEND: p_0/k_B=62500.000000 [K/rad^2], p_1=109.470000 [degrees]
	Bend interaction 36: A=22 B=15 C=24 Type:HARMONIC_BEND
		HARMONIC_BEND: p_0/k_B=62500.000000 [K/rad^2], p_1=109.470000 [degrees]
	Bend interaction 37: A=22 B=15 C=23 Type:HARMONIC_BEND
		HARMONIC_BEND: p_0/k_B=62500.000000 [K/rad^2], p_1=109.470000 [degrees]
	Bend interaction 38: A=23 B=15 C=24 Type:HARMONIC_BEND
		HARMONIC_BEND: p_0/k_B=62500.000000 [K/rad^2], p_1=109.470000 [degrees]

	Number of Torsions: 12
	--------------------------------------------
	Torsions interaction 0: A=16 B=5 C=2 D=1 Type:TRAPPE_DIHEDRAL
		TRAPPE_DIHEDRAL: p_0/k_B=0.000000   [K], p_1/k_B=335.030000 [K], p_2/k_B=-68.190000 [K], p_3/k_B=791.320000 [K]
	Torsions interaction 1: A=20 B=18 C=5 D=16 Type:TRAPPE_DIHEDRAL
		TRAPPE_DIHEDRAL: p_0/k_B=0.000000   [K], p_1/k_B=335.030000 [K], p_2/k_B=-68.190000 [K], p_3/k_B=791.320000 [K]
	Torsions interaction 2: A=21 B=18 C=5 D=17 Type:TRAPPE_DIHEDRAL
		TRAPPE_DIHEDRAL: p_0/k_B=0.000000   [K], p_1/k_B=335.030000 [K], p_2/k_B=-68.190000 [K], p_3/k_B=791.320000 [K]
	Torsions interaction 3: A=5 B=2 C=3 D=4 Type:TRAPPE_DIHEDRAL
		TRAPPE_DIHEDRAL: p_0/k_B=0.000000   [K], p_1/k_B=335.030000 [K], p_2/k_B=-68.190000 [K], p_3/k_B=791.320000 [K]
	Torsions interaction 4: A=6 B=1 C=0 D=14 Type:TRAPPE_DIHEDRAL
		TRAPPE_DIHEDRAL: p_0/k_B=0.000000   [K], p_1/k_B=335.030000 [K], p_2/k_B=-68.190000 [K], p_3/k_B=791.320000 [K]
	Torsions interaction 5: A=13 B=11 C=3 D=2 Type:TRAPPE_DIHEDRAL
		TRAPPE_DIHEDRAL: p_0/k_B=0.000000   [K], p_1/k_B=335.030000 [K], p_2/k_B=-68.190000 [K], p_3/k_B=791.320000 [K]
	Torsions interaction 6: A=13 B=11 C=3 D=4 Type:TRAPPE_DIHEDRAL
		TRAPPE_DIHEDRAL: p_0/k_B=0.000000   [K], p_1/k_B=335.030000 [K], p_2/k_B=-68.190000 [K], p_3/k_B=791.320000 [K]
	Torsions interaction 7: A=6 B=1 C=2 D=5 Type:TRAPPE_DIHEDRAL
		TRAPPE_DIHEDRAL: p_0/k_B=0.000000   [K], p_1/k_B=335.030000 [K], p_2/k_B=-68.190000 [K], p_3/k_B=791.320000 [K]
	Torsions interaction 8: A=8 B=6 C=1 D=0 Type:TRAPPE_DIHEDRAL
		TRAPPE_DIHEDRAL: p_0/k_B=0.000000   [K], p_1/k_B=335.030000 [K], p_2/k_B=-68.190000 [K], p_3/k_B=791.320000 [K]
	Torsions interaction 9: A=18 B=5 C=2 D=1 Type:TRAPPE_DIHEDRAL
		TRAPPE_DIHEDRAL: p_0/k_B=0.000000   [K], p_1/k_B=335.030000 [K], p_2/k_B=-68.190000 [K], p_3/k_B=791.320000 [K]
	Torsions interaction 10: A=18 B=5 C=2 D=3 Type:TRAPPE_DIHEDRAL
		TRAPPE_DIHEDRAL: p_0/k_B=0.000000   [K], p_1/k_B=335.030000 [K], p_2/k_B=-68.190000 [K], p_3/k_B=791.320000 [K]
	Torsions interaction 11: A=20 B=18 C=5 D=2 Type:TRAPPE_DIHEDRAL
		TRAPPE_DIHEDRAL: p_0/k_B=0.000000   [K], p_1/k_B=335.030000 [K], p_2/k_B=-68.190000 [K], p_3/k_B=791.320000 [K]


	number of identity-config changes: 1
	--------------------------------------------
	nr fixed 1: 0 

	Number of pockets blocked in a unitcell: 0
		Pockets are NOT blocked for this component

Component 1 [fluorine] (Cation molecule)

	MoleculeDefinitions: Local
	Component contains (at least some) atoms which are charged
	Component contains no atoms with point dipoles (polarization)
	Component has a net charge of 0.560000

	Ideal chain Rosenbluth weight: 1
	Ideal chain total energy: 0.000000

	Critical temparure [K]: 0.000000
	Critical pressure [Pa]: 0.000000
	Acentric factor [-]: 0.000000

	RXMC partition factor [-]: 0.000000

	Vapour=stable, Liquid=metastable

	MolFraction:           1.0000000000 [-]
	Compressibility:       0.0000000000 [-]

	Density of the bulk fluid phase:       0.0000000000 [kg/m^3]


	Amount of excess molecules:       0.0000000000 [-]

	Conversion factor molecules/unit cell -> mol/kg:       0.2018230680 [-]
	Conversion factor molecules/unit cell -> gr/gr:       3.8343161817 [-]
	Conversion factor molecules/unit cell -> cm^3 STP/gr:       4.5236573507 [-]
	Conversion factor molecules/unit cell -> cm^3 STP/cm^3:      10.2176408463 [-]
	Conversion factor mol/kg -> cm^3 STP/gr:      22.4139757476 [-]
	Conversion factor mol/kg -> cm^3 STP/cm^3:      50.6267244344 [-]

	Partial pressure: -16605402.00000000000000 [Pa]
	                    -124540.51499999999942 [Torr]
	                       -166.05402000000001 [bar]
	                       -163.88257586972614 [atm]

	Fugacity coefficient:      -1.0000000000 [-]

	Partial fugacity:  16605402.00000000000000 [Pa]
	                     124540.51499999999942 [Torr]
	                        166.05402000000001 [bar]
	                        163.88257586972614 [atm]

	Molecule contains 1 number of atoms
		atom:    0  is of type:    7 [         F] (group: 0)

	Molecule contains 0 chirality centers

	Molecule contains 1 number of groups

		group: 0 containing: 1 elements
		-------------------------------------------------
		the group is modelled as flexible, i.e. no constraints
		Mass: 18.998404 [a.u.]
		Mass: 8.660620 [kg/m^3]

		Rotational Degrees of freedom: 0
		Diagonalized inertia vector:       0.0000000000
		                                   0.0000000000
		                                   0.0000000000
		element: 0 atom: 0 [         F] Charge:  0.560000 Anisotropy: 0.000000 Connectivity: 0 ()

		Dipole:           0.0000000000 [D]
		Quadrupole:       0.0000000000       0.0000000000       0.0000000000 [D Angstrom]
		Quadrupole tensor [D Angstrom]
				       0.0000000000       0.0000000000       0.0000000000
				       0.0000000000       0.0000000000       0.0000000000
				       0.0000000000       0.0000000000       0.0000000000

	Starting bead for growth               : 0

	Degrees of freedom                     : 0
	Translational degrees of freedom       : 0
	Rotational degrees of freedom          : 0
	Vibrational degrees of freedom         : 0
	Constraint degrees of freedom          : 0

	Number of atoms                        : 1

	Number of constraint bonds             : 0
	Number of constraint bends             : 0
	Number of constraint inversion bends   : 0
	Number of constraint torsions          : 0
	Number of constraint improper torsions : 0
	Number of constraint improper torsions : 0

	Number of bonds                        : 0
	Number of Urey-Bradleys                : 0
	Number of bends                        : 0
	Number of inversion bends              : 0
	Number of torsions                     : 0
	Number of improper torsions            : 0
	Number of improper torsions            : 0

	Number of bond/bond cross terms        : 0
	Number of bond/bend cross terms        : 0
	Number of bend/bend cross terms        : 0
	Number of stretch/torsion cross terms  : 0
	Number of bend/torsion cross terms     : 0

	Number of charges                      : 1
	Number of bond-dipoles                 : 0

	Number of intra Van der Waals                             : 0
	Number of intra charge-charge Coulomb                     : 0
	Number of intra charge-bonddipole Coulomb                 : 0
	Number of intra bonddipole-bonddipole Coulomb             : 0

	Number of excluded intra charge-charge Coulomb                     : 0
	Number of excluded intra charge-bonddipole Coulomb                 : 0
	Number of excluded intra bonddipole-bonddipole Coulomb             : 0

	Number of cbmc-config moves                               : 0

	Particle Moves:             
		ProbabilityTranslationMove:                  0.000000
			TranslationDirection:      XYZ
		Percentage of random translation moves:            0.000000
		Percentage of rotation moves:                      0.000000
		Percentage of random rotation moves:               0.000000
		Percentage of partial reinsertion moves:           0.000000
		Percentage of reinsertion moves:                   0.000000
		Percentage of reinsertion-in-place moves:          0.000000
		Percentage of reinsertion-in-plane moves:          0.000000
		Percentage of identity-change moves:               0.000000
		Percentage of swap (insert/delete) moves:          0.000000
		Percentage of CF swap lambda moves:                0.000000
		Percentage of CB/CFMC swap lambda moves:           0.000000
		Percentage of Widom insertion moves:               0.000000
		Percentage of Gibbs Widom insertion moves:         0.000000
		Percentage of surface-area moves:                  0.000000
		Percentage of Gibbs particle-transfer moves:       0.000000
		Percentage of Gibbs identity-change moves:         0.000000
		Percentage of CF Gibbs lambda-transfer moves:      0.000000
		Percentage of CB/CFMC Gibbs lambda-transfer moves: 0.000000
		Percentage of exchange frac./int. particle moves:  0.000000
		Percentage of fractional mol. to other box moves:  0.000000
		Percentage of lambda-change moves:                 0.000000
		Percentage of fractional to integer moves:         0.000000

	System Moves:
		Percentage of parallel-tempering moves:            0.000000
		Percentage of hyper-parallel-tempering moves:      0.000000
		Percentage of parallel-mol-fraction moves:         0.000000
			   Component A: 0 B: 1
		Percentage of chiral inversion moves:              0.000000
		Percentage of Hybrid-NVE moves:                    0.000000
		Percentage of Hybrid-NPH moves:                    0.000000
		Percentage of Hybrid-NPHPR moves:                  0.000000
		Percentage of volume-change moves:                 0.000000
		Percentage of box-shape-change moves:              0.000000
		Percentage of Gibbs volume-change moves:           0.000000
		Percentage of framework-change moves:              0.000000
		Percentage of framework-shift moves:               0.000000
		Percentage of reactive MC moves:                   0.000000

	Moves are restricted: No
	No biased sampling used for this component


	number of identity-config changes: 1
	--------------------------------------------
	nr fixed 1: 0 

	Number of pockets blocked in a unitcell: 0
		Pockets are NOT blocked for this component



Framework Status
===========================================================================
Lowenstein's rule obeyed by framework
	Framework is modelled as: flexible using the model of local
	==================================================================================

	Number of Core/Shell definitions: 4
	--------------------------------------------
	Core/shell pair: core [Ogg] and shell [shOgg] (1 pairs)
	Core/shell pair: core [Oss] and shell [shOss] (85 pairs)
	Core/shell pair: core [Ogs] and shell [shOgs] (34 pairs)
	Core/shell pair: core [F] and shell [shF] (6 pairs)

	Number of Bonds definitions: 4
	--------------------------------------------
	Bond interaction between [Ogg-shOgg] using bond-type: CORE_SHELL_SPRING (1 bonds)
	  args: 1   arg[0]=2092477.212340 
	Bond interaction between [Ogs-shOgs] using bond-type: CORE_SHELL_SPRING (34 bonds)
	  args: 1   arg[0]=881592.748799 
	Bond interaction between [Oss-shOss] using bond-type: CORE_SHELL_SPRING (85 bonds)
	  args: 1   arg[0]=1487035.038592 
	Bond interaction between [F-shF] using bond-type: CORE_SHELL_SPRING (6 bonds)
	  args: 1   arg[0]=388203.049087 

	Number of Bend definitions: 18
	--------------------------------------------
	Bend interaction between [shOgg-Si-shOgg] using bend-type: CORE_SHELL_BEND (0 bends)
	  args: 2   arg[0]=14637.936303 arg[1]=109.470000 
	Bend interaction between [shOgg-Si-shOss] using bend-type: CORE_SHELL_BEND (0 bends)
	  args: 2   arg[0]=14637.936303 arg[1]=109.470000 
	Bend interaction between [shOgg-Si-shOgs] using bend-type: CORE_SHELL_BEND (0 bends)
	  args: 2   arg[0]=14637.936303 arg[1]=109.470000 
	Bend interaction between [shOss-Si-shOgg] using bend-type: CORE_SHELL_BEND (0 bends)
	  args: 2   arg[0]=14637.936303 arg[1]=109.470000 
	Bend interaction between [shOss-Si-shOss] using bend-type: CORE_SHELL_BEND (209 bends)
	  args: 2   arg[0]=14637.936303 arg[1]=109.470000 
	Bend interaction between [shOss-Si-shOgs] using bend-type: CORE_SHELL_BEND (92 bends)
	  args: 2   arg[0]=14637.936303 arg[1]=109.470000 
	Bend interaction between [shOgs-Si-shOgg] using bend-type: CORE_SHELL_BEND (0 bends)
	  args: 2   arg[0]=14637.936303 arg[1]=109.470000 
	Bend interaction between [shOgs-Si-shOss] using bend-type: CORE_SHELL_BEND (0 bends)
	  args: 2   arg[0]=14637.936303 arg[1]=109.470000 
	Bend interaction between [shOgs-Si-shOgs] using bend-type: CORE_SHELL_BEND (5 bends)
	  args: 2   arg[0]=14637.936303 arg[1]=109.470000 
	Bend interaction between [shOgg-Al-shOgg] using bend-type: CORE_SHELL_BEND (0 bends)
	  args: 2   arg[0]=14637.936303 arg[1]=109.470000 
	Bend interaction between [shOgg-Al-shOss] using bend-type: CORE_SHELL_BEND (0 bends)
	  args: 2   arg[0]=14637.936303 arg[1]=109.470000 
	Bend interaction between [shOgg-Al-shOgs] using bend-type: CORE_SHELL_BEND (0 bends)
	  args: 2   arg[0]=14637.936303 arg[1]=109.470000 
	Bend interaction between [shOss-Al-shOgg] using bend-type: CORE_SHELL_BEND (0 bends)
	  args: 2   arg[0]=14637.936303 arg[1]=109.470000 
	Bend interaction between [shOss-Al-shOss] using bend-type: CORE_SHELL_BEND (0 bends)
	  args: 2   arg[0]=14637.936303 arg[1]=109.470000 
	Bend interaction between [shOss-Al-shOgs] using bend-type: CORE_SHELL_BEND (0 bends)
	  args: 2   arg[0]=14637.936303 arg[1]=109.470000 
	Bend interaction between [shOgs-Al-shOgg] using bend-type: CORE_SHELL_BEND (0 bends)
	  args: 2   arg[0]=14637.936303 arg[1]=109.470000 
	Bend interaction between [shOgs-Al-shOss] using bend-type: CORE_SHELL_BEND (0 bends)
	  args: 2   arg[0]=14637.936303 arg[1]=109.470000 
	Bend interaction between [shOgs-Al-shOgs] using bend-type: CORE_SHELL_BEND (0 bends)
	  args: 2   arg[0]=14637.936303 arg[1]=109.470000 


	Number of core/shells:                           126
	Number of bonds:                                 126
	Number of bond-dipoles:                          0
	Number of bends:                                 306
	Number of Urey-Bradleys:                         0
	Number of Inversion bends:                       0
	Number of Torsions:                              0
	Number of Improper Torsions:                     0
	Number of Out-of-planes:                         0
	Number of bond-bond cross terms:                 0
	Number of bond-bend cross terms:                 0
	Number of bend-bend cross terms:                 0
	Number of stretch-torsion cross terms:           0
	Number of bend-torsion cross terms:              0

	Number of charges:                               66
	Number of bonddipoles:                           0

	Number of Intra VDW:                             48252
	Number of Intra Coulomb charge-charge:           48252
	Number of Intra Coulomb charge-bonddipole:       0
	Number of Intra Coulomb bonddipoles:             0
	Number of excluded Intra VDW:                    264
	Number of excluded intra charge-charge:          264
	Number of excluded intra charge-bonddipole:      0
	Number of excluded intra bonddipole-bonddipole:  0


	Number of 1-2 intra-framework pairs: 582
	Number of 1-3 intra-framework pairs: 2326
	Number of 1-4 intra-framework pairs: 7468
	Number of 1-2,1-3 intra-framework pairs: 2908
	Number of 1-2,1-3,1-4 intra-framework pairs: 10376
	Bond interactions are removed (excluded from VDW and Coulomb interactions)
	Bend interactions are removed (excluded from VDW and Coulomb interactions)
	Torsion interactions are *included* in the VDW and Coulomb interactions
	Remove12NeighboursFromVDWInteraction no
	Remove13NeighboursFromVDWInteraction no
	Remove14NeighboursFromVDWInteraction no
	Remove12NeighboursFromChargeChargeInteraction no
	Remove13NeighboursFromChargeChargeInteraction no
	Remove14NeighboursFromChargeChargeInteraction no
	Remove11NeighboursFromChargeBondDipoleInteraction no
	Remove12NeighboursFromChargeBondDipoleInteraction no
	Remove13NeighboursFromChargeBondDipoleInteraction no
	Remove14NeighboursFromChargeBondDipoleInteraction no
	Remove12NeighboursFromBondDipoleBondDipoleInteraction no
	Remove13NeighboursFromBondDipoleBondDipoleInteraction no
	Remove14NeighboursFromBondDipoleBondDipoleInteraction no
	InternalFrameworkLennardJonesInteractions yes


System Properties
===========================================================================
Unit cell size: 11.902100 11.902100 29.692000
Cell angles (radians)  alpha: 1.570796 beta: 1.570796 gamma: 2.094395
Cell angles (degrees)  alpha: 90.000000 beta: 90.000000 gamma: 120.000000
Number of unitcells [a]: 1
Number of unitcells [b]: 1
Number of unitcells [c]: 1

TRICLINIC Boundary conditions: alpha!=90 or beta!=90 or gamma!=90

Cartesian axis A is collinear with crystallographic axis a
Cartesian axis B is collinear with (axb)xA
Cartesian axis C is collinear with (axb)

lengths of cell vectors:
 11.90210  11.90210  29.69200
cosines of cell angles:
  0.00000   0.00000  -0.50000
perpendicular cell widths:
 10.30752  10.30752  29.69200
volume of the cell:  3642.648563241807 (A^3)

Orthogonalization matrix Box
Transforms fractional coordinates abc into orthonormal Cartesian coordinates xyz
Deorthogonalization matrix InverseBox
Transforms orthonormal Cartesian coordinates xyz into fractional coordinates xyz

Box[0]:
	   11.902100000000    -5.951050000000     0.000000000000
	    0.000000000000    10.307520958383     0.000000000000
	    0.000000000000     0.000000000000    29.692000000000

Inverse box[0]:
	    0.084018786601     0.048508269061    -0.000000000000
	    0.000000000000     0.097016538122    -0.000000000000
	    0.000000000000    -0.000000000000     0.033679105483


Unitcell box[0]:
	   11.902100000000    -5.951050000000     0.000000000000
	    0.000000000000    10.307520958383     0.000000000000
	    0.000000000000     0.000000000000    29.692000000000

Unitcell inverse box[0]:
	    0.084018786601     0.048508269061    -0.000000000000
	    0.000000000000     0.097016538122    -0.000000000000
	    0.000000000000    -0.000000000000     0.033679105483

lengths of cell vectors (inverse box):
  0.08402   0.10847   0.03368
cosines of cell angles (inverse box):
 -0.00000  -0.00000   0.44721
perpendicular cell widths (inverse):
  0.07515   0.09702   0.03368
volume of the cell:  3642.648563241807 (A^3)

No replicas are used
Framework is simulated as 'flexible'
Number of framework atoms: 312
Number of framework atoms in the unit cell: 186
Framework Mass:  4954.834995255645 [g/mol]
Framework Density:  2258.712376799291 [kg/m^3]    0.4427301192802 [cm^3/g]
Helium void fraction:    0.00000000
Available pore volume:    0.00000000 [A^3]    0.00000000 [cm^3/g]
Conversion factor from molecule/unit cell -> kmol/m^3: 0.45586, kmol/m^3 accesible pore volume: inf
The framework atom types are modified at reading the input, 4 rules
	rule 0: modify (O) to (Oss) when connected to (Si) and (wild card)
	rule 1: modify (O) to (Ogg) when connected to (Ge) and (wild card)
	rule 2: modify (Oss) to (Ogg) when connected to (Ge) and (wild card)
	rule 3: modify (Ogg) to (Ogs) when connected to (Si) and (wild card)

Number Of Frameworks (per system): 1
----------------------------------------------------------------------
Framework name: c0001
Space group: 1
	Identifier: 1
	short international Hermann-Mauguin symbol: P 1
	long international Hermann-Mauguin symbol: P 1
	Hall symbol: P 1
	Number of lattice translations: 1 [ (0,0,0) ]
	acentric/centric: acentric
	chiral: no
	enantiomorphic: no
	number of operators: 1
		'x,y,z'
Framework is simulated as 'flexible'
Shift: 0.000000 0.000000 0.000000
Number of framework atoms: 312
Number of asymmetric atoms: 186
Number of free framework atoms: 312
Number of fixed framework atoms: 0
Number of framework atoms in the unit cell: 186
Framework Mass:  4120.039515255646 [g/mol]
Framework Density:  1878.162290958376 [kg/m^3]
Framework has net charge: -6.000000
         largest charge : 4.000000
         smallest charge: -3.733957


Current Atom Status
===========================================================================
Number of framework atoms        : 312
Number of cations molecules      : 6
Number of adsorbate molecules    : 0
Component    0 :    6 molecules
Component    1 :    0 molecules
Pseudo Atoms    0 [    UNIT]:    0 atoms
Pseudo Atoms    1 [     Ogg]:    1 atoms
Pseudo Atoms    2 [   shOgg]:    1 atoms
Pseudo Atoms    3 [     Oss]:   85 atoms
Pseudo Atoms    4 [   shOss]:   85 atoms
Pseudo Atoms    5 [     Ogs]:   34 atoms
Pseudo Atoms    6 [   shOgs]:   34 atoms
Pseudo Atoms    7 [       F]:    6 atoms
Pseudo Atoms    8 [     shF]:    6 atoms
Pseudo Atoms    9 [      Si]:   51 atoms
Pseudo Atoms   10 [      Al]:    0 atoms
Pseudo Atoms   11 [      Ge]:    9 atoms
Pseudo Atoms   12 [      C3]:   24 atoms
Pseudo Atoms   13 [      C2]:    6 atoms
Pseudo Atoms   14 [      C6]:    6 atoms
Pseudo Atoms   15 [      C4]:    6 atoms
Pseudo Atoms   16 [      C5]:    6 atoms
Pseudo Atoms   17 [      H1]:   84 atoms
Pseudo Atoms   18 [      H6]:    6 atoms
Pseudo Atoms   19 [      N1]:    6 atoms
Pseudo Atoms   20 [      N2]:    6 atoms
Pseudo Atoms   21 [       O]:    0 atoms


Current (initial full energy) Energy Status
===========================================================================

Internal energy:
Host stretch energy:                                       808530.62209406
Host UreyBradley energy:                                        0.00000000
Host bend energy:                                           15675.28892606
Host inversion-bend energy:                                     0.00000000
Host torsion energy:                                            0.00000000
Host improper torsion energy:                                   0.00000000
Host out-of-plane energy:                                       0.00000000
Host stretch/stretch energy:                                    0.00000000
Host bend/bend energy:                                          0.00000000
Host stretch/bend energy:                                       0.00000000
Host stretch/torsion energy:                                    0.00000000
Host bend/torsion energy:                                       0.00000000

Adsorbate stretch energy:                                       0.00000000
Adsorbate UreyBradley energy:                                   0.00000000
Adsorbate bend energy:                                          0.00000000
Adsorbate inversion-bend energy:                                0.00000000
Adsorbate torsion energy:                                       0.00000000
Adsorbate improper torsion energy:                              0.00000000
Adsorbate out-of-plane energy:                                  0.00000000
Adsorbate stretch/stretch energy:                               0.00000000
Adsorbate bend/bend energy:                                     0.00000000
Adsorbate stretch/bend energy:                                  0.00000000
Adsorbate stretch/torsion energy:                               0.00000000
Adsorbate bend/torsion energy:                                  0.00000000
Adsorbate intra VDW energy:                                     0.00000000
Adsorbate intra charge-charge Coulomb energy:                   0.00000000
Adsorbate intra charge-bonddipole Coulomb energy:               0.00000000
Adsorbate intra bonddipole-bonddipole Coulomb energy:           0.00000000

Cation stretch energy:                                          0.00000000
Cation UreyBradley energy:                                      0.00000000
Cation bend energy:                                         33610.23443074
Cation inversion-bend energy:                                   0.00000000
Cation torsion energy:                                      42802.71842832
Cation improper torsion energy:                                 0.00000000
Cation out-of-plane energy:                                     0.00000000
Cation stretch/stretch energy:                                  0.00000000
Cation bend/bend energy:                                        0.00000000
Cation stretch/bend energy:                                     0.00000000
Cation stretch/torsion energy:                                  0.00000000
Cation bend/torsion energy:                                     0.00000000
Cation intra VDW energy:                                        0.00000000
Cation intra charge-charge Coulomb energy:                      0.00000000
Cation intra charge-bonddipole Coulomb energy:                  0.00000000
Cation intra bonddipole-bonddipole Coulomb energy:              0.00000000

Host/Host energy:                                     -163982688.13170078
	Host/Host VDW energy:                                  22308604.21800273
	Host/Host Coulomb energy:                             -186291292.34970349
	Host/Host charge-charge Real energy:                  -98835993.69835411
	Host/Host charge-charge Fourier energy:               -87455298.65134938
	Host/Host charge-bonddipole Real energy:                      0.00000000
	Host/Host charge-bonddipole Fourier energy:                   0.00000000
	Host/Host bondipole-bonddipole Real energy:                   0.00000000
	Host/Host bondipole-bonddipole Fourier energy:                0.00000000

Host/Adsorbate energy:                                        0.00000000
	Host/Adsorbate VDW energy:                                    0.00000000
	Host/Adsorbate Coulomb energy:                                0.00000000
	Host/Adsorbate charge-charge Real energy:                     0.00000000
	Host/Adsorbate charge-charge Fourier energy:                  0.00000000
	Host/Adsorbate charge-bonddipole Real energy:                 0.00000000
	Host/Adsorbate charge-bonddipole Fourier energy:              0.00000000
	Host/Adsorbate bondipole-bonddipole Real energy:              0.00000000
	Host/Adsorbate bondipole-bonddipole Fourier energy:           0.00000000

Host/Cation energy:                                     -513967.69332669
	Host/Cation VDW energy:                                  308602.55453579
	Host/Cation Coulomb energy:                             -822570.24786248
	Host/Cation charge-charge Real energy:                  -225450.83471979
	Host/Cation charge-charge Fourier energy:               -597119.41314268
	Host/Cation charge-bonddipole Real energy:                    0.00000000
	Host/Cation charge-bonddipole Fourier energy:                 0.00000000
	Host/Cation bondipole-bonddipole Real energy:                 0.00000000
	Host/Cation bondipole-bonddipole Fourier energy:              0.00000000

Adsorbate/Adsorbate energy:                                        0.00000000
	Adsorbate/Adsorbate VDW energy:                                    0.00000000
	Adsorbate/Adsorbate Coulomb energy:                                0.00000000
[...]
====================================
	Block[ 0]            0.00000 [K]
	Block[ 1]            0.00000 [K]
	Block[ 2]            0.00000 [K]
	Block[ 3]            0.00000 [K]
	Block[ 4]            0.00000 [K]
	------------------------------------------------------------------------------
	Average              0.00000 [K] +/-            0.00000 [K]

Average Host-Host energy:
=========================
	Block[ 0] -163982688.13170   Van der Waals: 22308604.21800     Coulomb: -186291292.34971   [K]
	Block[ 1] -163982688.13170   Van der Waals: 22308604.21800     Coulomb: -186291292.34971   [K]
	Block[ 2] -163982688.13170   Van der Waals: 22308604.21800     Coulomb: -186291292.34971   [K]
	Block[ 3] -163982688.13170   Van der Waals: 22308604.21800     Coulomb: -186291292.34971   [K]
	Block[ 4] -163982688.13170   Van der Waals: 22308604.21800     Coulomb: -186291292.34971   [K]
	------------------------------------------------------------------------------
	Average   -163982688.13170   Van der Waals: 22308604.218003    Coulomb: -186291292.34971   [K]
	      +/- 0.00000                       +/- 0.500000                +/- 5.65685            [K]

Average Adsorbate-Adsorbate energy:
===================================
	Block[ 0] 0.00000            Van der Waals: 0.00000            Coulomb: 0.00000            [K]
	Block[ 1] 0.00000            Van der Waals: 0.00000            Coulomb: 0.00000            [K]
	Block[ 2] 0.00000            Van der Waals: 0.00000            Coulomb: 0.00000            [K]
	Block[ 3] 0.00000            Van der Waals: 0.00000            Coulomb: 0.00000            [K]
	Block[ 4] 0.00000            Van der Waals: 0.00000            Coulomb: 0.00000            [K]
	------------------------------------------------------------------------------
	Average   0.00000            Van der Waals: 0.000000           Coulomb: 0.00000            [K]
	      +/- 0.00000                       +/- 0.000000                +/- 0.00000            [K]

Average Cation-Cation energy:
=============================
	Block[ 0] 162968.02676       Van der Waals: 4922.59589         Coulomb: 158045.43087       [K]
	Block[ 1] 159517.79352       Van der Waals: 3099.62313         Coulomb: 156418.17040       [K]
	Block[ 2] 158566.76927       Van der Waals: 3662.03567         Coulomb: 154904.73360       [K]
	Block[ 3] 158420.25095       Van der Waals: 3568.68418         Coulomb: 154851.56677       [K]
	Block[ 4] 157996.34155       Van der Waals: 3035.55070         Coulomb: 154960.79085       [K]
	------------------------------------------------------------------------------
	Average   159493.83641       Van der Waals: 3657.697913        Coulomb: 155836.13850       [K]
	      +/- 3613.87356                    +/- 1358.358948             +/- 2501.65769         [K]

Average Host-Adsorbate energy:
==============================
	Block[ 0] 0.00000            Van der Waals: 0.00000            Coulomb: 0.00000            [K]
	Block[ 1] 0.00000            Van der Waals: 0.00000            Coulomb: 0.00000            [K]
	Block[ 2] 0.00000            Van der Waals: 0.00000            Coulomb: 0.00000            [K]
	Block[ 3] 0.00000            Van der Waals: 0.00000            Coulomb: 0.00000            [K]
	Block[ 4] 0.00000            Van der Waals: 0.00000            Coulomb: 0.00000            [K]
	------------------------------------------------------------------------------
	Average   0.00000            Van der Waals: 0.000000           Coulomb: 0.00000            [K]
	      +/- 0.00000                       +/- 0.000000                +/- 0.00000            [K]

Average Host-Cation energy:
===========================
	Block[ 0] -768921.77253      Van der Waals: 79349.19166        Coulomb: -848270.96418      [K]
	Block[ 1] -827882.74216      Van der Waals: 38473.20205        Coulomb: -866355.94421      [K]
	Block[ 2] -842406.27800      Van der Waals: 32514.07495        Coulomb: -874920.35295      [K]
	Block[ 3] -844084.61182      Van der Waals: 32796.33225        Coulomb: -876880.94407      [K]
	Block[ 4] -844440.28159      Van der Waals: 37403.08538        Coulomb: -881843.36697      [K]
	------------------------------------------------------------------------------
	Average   -825547.13722      Van der Waals: 44107.177256       Coulomb: -869654.31448      [K]
	      +/- 57942.77504                   +/- 35564.266781            +/- 23607.71490        [K]

Average Adsorbate-Cation energy:
================================
	Block[ 0] 0.00000            Van der Waals: 0.00000            Coulomb: 0.00000            [K]
	Block[ 1] 0.00000            Van der Waals: 0.00000            Coulomb: 0.00000            [K]
	Block[ 2] 0.00000            Van der Waals: 0.00000            Coulomb: 0.00000            [K]
	Block[ 3] 0.00000            Van der Waals: 0.00000            Coulomb: 0.00000            [K]
	Block[ 4] 0.00000            Van der Waals: 0.00000            Coulomb: 0.00000            [K]
	------------------------------------------------------------------------------
	Average   0.00000            Van der Waals: 0.000000           Coulomb: 0.00000            [K]
	      +/- 0.00000                       +/- 0.000000                +/- 0.00000            [K]

Host polarization energy:
=======================
	Block[ 0]            0.00000 [K]
	Block[ 1]            0.00000 [K]
	Block[ 2]            0.00000 [K]
	Block[ 3]            0.00000 [K]
	Block[ 4]            0.00000 [K]
	------------------------------------------------------------------------------
	Average              0.00000 [K] +/-            0.00000 [K]

Adsorbate polarization energy:
=======================
	Block[ 0]            0.00000 [K]
	Block[ 1]            0.00000 [K]
	Block[ 2]            0.00000 [K]
	Block[ 3]            0.00000 [K]
	Block[ 4]            0.00000 [K]
	------------------------------------------------------------------------------
	Average              0.00000 [K] +/-            0.00000 [K]

Cation polarization energy:
=======================
	Block[ 0]            0.00000 [K]
	Block[ 1]            0.00000 [K]
	Block[ 2]            0.00000 [K]
	Block[ 3]            0.00000 [K]
	Block[ 4]            0.00000 [K]
	------------------------------------------------------------------------------
	Average              0.00000 [K] +/-            0.00000 [K]

Host back-polarization energy:
=======================
	Block[ 0]            0.00000 [K]
	Block[ 1]            0.00000 [K]
	Block[ 2]            0.00000 [K]
	Block[ 3]            0.00000 [K]
	Block[ 4]            0.00000 [K]
	------------------------------------------------------------------------------
	Average              0.00000 [K] +/-            0.00000 [K]

Adsorbate back-polarization energy:
=======================
	Block[ 0]            0.00000 [K]
	Block[ 1]            0.00000 [K]
	Block[ 2]            0.00000 [K]
	Block[ 3]            0.00000 [K]
	Block[ 4]            0.00000 [K]
	------------------------------------------------------------------------------
	Average              0.00000 [K] +/-            0.00000 [K]

Cation back-polarization energy:
=======================
	Block[ 0]            0.00000 [K]
	Block[ 1]            0.00000 [K]
	Block[ 2]            0.00000 [K]
	Block[ 3]            0.00000 [K]
	Block[ 4]            0.00000 [K]
	------------------------------------------------------------------------------
	Average              0.00000 [K] +/-            0.00000 [K]

Tail-correction energy:
=======================
	Block[ 0]            0.00000 [K]
	Block[ 1]            0.00000 [K]
	Block[ 2]            0.00000 [K]
	Block[ 3]            0.00000 [K]
	Block[ 4]            0.00000 [K]
	------------------------------------------------------------------------------
	Average              0.00000 [K] +/-            0.00000 [K]

Distance-constraints energy:
=======================
	Block[ 0]            0.00000 [K]
	Block[ 1]            0.00000 [K]
	Block[ 2]            0.00000 [K]
	Block[ 3]            0.00000 [K]
	Block[ 4]            0.00000 [K]
	------------------------------------------------------------------------------
	Average              0.00000 [K] +/-            0.00000 [K]

Angle-constraints energy:
=======================
	Block[ 0]            0.00000 [K]
	Block[ 1]            0.00000 [K]
	Block[ 2]            0.00000 [K]
	Block[ 3]            0.00000 [K]
	Block[ 4]            0.00000 [K]
	------------------------------------------------------------------------------
	Average              0.00000 [K] +/-            0.00000 [K]

Dihedral-constraints energy:
=======================
	Block[ 0]            0.00000 [K]
	Block[ 1]            0.00000 [K]
	Block[ 2]            0.00000 [K]
	Block[ 3]            0.00000 [K]
	Block[ 4]            0.00000 [K]
	------------------------------------------------------------------------------
	Average              0.00000 [K] +/-            0.00000 [K]

Inversion-bend constraints energy:
=======================
	Block[ 0]            0.00000 [K]
	Block[ 1]            0.00000 [K]
	Block[ 2]            0.00000 [K]
	Block[ 3]            0.00000 [K]
	Block[ 4]            0.00000 [K]
	------------------------------------------------------------------------------
	Average              0.00000 [K] +/-            0.00000 [K]

Out-of-plane-distance constraints energy:
=======================
	Block[ 0]            0.00000 [K]
	Block[ 1]            0.00000 [K]
	Block[ 2]            0.00000 [K]
	Block[ 3]            0.00000 [K]
	Block[ 4]            0.00000 [K]
	------------------------------------------------------------------------------
	Average              0.00000 [K] +/-            0.00000 [K]

Exclusion-constraints energy:
=======================
	Block[ 0]            0.00000 [K]
	Block[ 1]            0.00000 [K]
	Block[ 2]            0.00000 [K]
	Block[ 3]            0.00000 [K]
	Block[ 4]            0.00000 [K]
	------------------------------------------------------------------------------
	Average              0.00000 [K] +/-            0.00000 [K]

Total energy:
=============
	Block[ 0]   -163686832.34298 [K]
	Block[ 1]   -163749816.27245 [K]
	Block[ 2]   -163761017.32560 [K]
	Block[ 3]   -163762842.17775 [K]
	Block[ 4]   -163763621.75692 [K]
	------------------------------------------------------------------------------
	Average     -163744825.97514 [K] +/-        58843.44803 [K]

Number of molecules:
====================

Component 0 [2e134tmi_flexible]
-------------------------------------------------------------
	Block[ 0] 6.00000            [-]
	Block[ 1] 6.00000            [-]
	Block[ 2] 6.00000            [-]
	Block[ 3] 6.00000            [-]
	Block[ 4] 6.00000            [-]
	------------------------------------------------------------------------------
	Average                                      6.0000000000 +/-       0.0000000000 [-]
	Average loading absolute [molecules/unit cell]        6.0000000000 +/-       0.0000000000 [-]
	Average loading absolute [mol/kg framework]          1.2109384078 +/-       0.0000000000 [-]
	Average loading absolute [milligram/gram framework]        168.4809848964 +/-       0.0000000000 [-]
	Average loading absolute [cm^3 (STP)/gr framework]         27.1419441040 +/-       0.0000000000 [-]
	Average loading absolute [cm^3 (STP)/cm^3 framework]         61.3058450780 +/-       0.0000000000 [-]

	Block[ 0] 6.00000            [-]
	Block[ 1] 6.00000            [-]
	Block[ 2] 6.00000            [-]
	Block[ 3] 6.00000            [-]
	Block[ 4] 6.00000            [-]
	------------------------------------------------------------------------------
	Average                                      6.0000000000 +/-       0.0000000000 [-]
	Average loading excess [molecules/unit cell]        6.0000000000 +/-       0.0000000000 [-]
	Average loading excess [mol/kg framework]          1.2109384078 +/-       0.0000000000 [-]
	Average loading excess [milligram/gram framework]        168.4809848964 +/-       0.0000000000 [-]
	Average loading excess [cm^3 (STP)/gr framework]         27.1419441040 +/-       0.0000000000 [-]
	Average loading excess [cm^3 (STP)/cm^3 framework]         61.3058450780 +/-       0.0000000000 [-]

Component 1 [fluorine]
-------------------------------------------------------------
	Block[ 0] 0.00000            [-]
	Block[ 1] 0.00000            [-]
	Block[ 2] 0.00000            [-]
	Block[ 3] 0.00000            [-]
	Block[ 4] 0.00000            [-]
	------------------------------------------------------------------------------
	Average                                      0.0000000000 +/-       0.0000000000 [-]
	Average loading absolute [molecules/unit cell]        0.0000000000 +/-       0.0000000000 [-]
	Average loading absolute [mol/kg framework]          0.0000000000 +/-       0.0000000000 [-]
	Average loading absolute [milligram/gram framework]          0.0000000000 +/-       0.0000000000 [-]
	Average loading absolute [cm^3 (STP)/gr framework]          0.0000000000 +/-       0.0000000000 [-]
	Average loading absolute [cm^3 (STP)/cm^3 framework]          0.0000000000 +/-       0.0000000000 [-]

	Block[ 0] 0.00000            [-]
	Block[ 1] 0.00000            [-]
	Block[ 2] 0.00000            [-]
	Block[ 3] 0.00000            [-]
	Block[ 4] 0.00000            [-]
	------------------------------------------------------------------------------
	Average                                      0.0000000000 +/-       0.0000000000 [-]
	Average loading excess [molecules/unit cell]        0.0000000000 +/-       0.0000000000 [-]
	Average loading excess [mol/kg framework]          0.0000000000 +/-       0.0000000000 [-]
	Average loading excess [milligram/gram framework]          0.0000000000 +/-       0.0000000000 [-]
	Average loading excess [cm^3 (STP)/gr framework]          0.0000000000 +/-       0.0000000000 [-]
	Average loading excess [cm^3 (STP)/cm^3 framework]          0.0000000000 +/-       0.0000000000 [-]


Average Widom Rosenbluth factor:
================================
	Block[ 0] 0 [-]
	Block[ 1] 0 [-]
	Block[ 2] 0 [-]
	Block[ 3] 0 [-]
	Block[ 4] 0 [-]
	------------------------------------------------------------------------------
	[2e134tmi_flexible] Average Widom Rosenbluth-weight:   0 +/- 0.000000 [-]
	Block[ 0] 0 [-]
	Block[ 1] 0 [-]
	Block[ 2] 0 [-]
	Block[ 3] 0 [-]
	Block[ 4] 0 [-]
	------------------------------------------------------------------------------
	[fluorine] Average Widom Rosenbluth-weight:   0 +/- 0.000000 [-]

Average Gibbs Widom chemical potential:
=======================================
	Block[ 0] 0 [-]
	Block[ 1] 0 [-]
	Block[ 2] 0 [-]
	Block[ 3] 0 [-]
	Block[ 4] 0 [-]
	------------------------------------------------------------------------------
	[2e134tmi_flexible] Average chemical potential:   0 +/- 0.000000 [K]
	Block[ 0] 0 [-]
	Block[ 1] 0 [-]
	Block[ 2] 0 [-]
	Block[ 3] 0 [-]
	Block[ 4] 0 [-]
	------------------------------------------------------------------------------
	[fluorine] Average chemical potential:   0 +/- 0.000000 [K]

Average Widom Ideal-gas contribution:
=====================================
	Block[ 0] 0 [-]
	Block[ 1] 0 [-]
	Block[ 2] 0 [-]
	Block[ 3] 0 [-]
	Block[ 4] 0 [-]
	------------------------------------------------------------------------------
	[2e134tmi_flexible] Average Widom Ideal-gas chemical potential:   0 +/- 0.000000 [-]
	Block[ 0] 0 [-]
	Block[ 1] 0 [-]
	Block[ 2] 0 [-]
	Block[ 3] 0 [-]
	Block[ 4] 0 [-]
	------------------------------------------------------------------------------
	[fluorine] Average Widom Ideal-gas chemical potential:   0 +/- 0.000000 [-]

Average Widom excess contribution:
==================================
	Block[ 0] 0 [-]
	Block[ 1] 0 [-]
	Block[ 2] 0 [-]
	Block[ 3] 0 [-]
	Block[ 4] 0 [-]
	------------------------------------------------------------------------------
	[2e134tmi_flexible] Average Widom excess chemical potential:   0 +/- 0.000000 [-]
	Block[ 0] 0 [-]
	Block[ 1] 0 [-]
	Block[ 2] 0 [-]
	Block[ 3] 0 [-]
	Block[ 4] 0 [-]
	------------------------------------------------------------------------------
	[fluorine] Average Widom excess chemical potential:   0 +/- 0.000000 [-]

Average Gibbs Widom Rosenbluth factor:
======================================
	Block[ 0] 0 [-]
	Block[ 1] 0 [-]
	Block[ 2] 0 [-]
	Block[ 3] 0 [-]
	Block[ 4] 0 [-]
	------------------------------------------------------------------------------
	[2e134tmi_flexible] Average Gibbs Widom Rosenbluth-weight:   0 +/- 0.000000 [-]
	Block[ 0] 0 [-]
	Block[ 1] 0 [-]
	Block[ 2] 0 [-]
	Block[ 3] 0 [-]
	Block[ 4] 0 [-]
	------------------------------------------------------------------------------
	[fluorine] Average Gibbs Widom Rosenbluth-weight:   0 +/- 0.000000 [-]

Average Gibbs Widom chemical potential:
=======================================
	Block[ 0] 0 [-]
	Block[ 1] 0 [-]
	Block[ 2] 0 [-]
	Block[ 3] 0 [-]
	Block[ 4] 0 [-]
	------------------------------------------------------------------------------
	[2e134tmi_flexible] Average Gibbs chemical potential:   0 +/- 0.000000 [K]
	Block[ 0] 0 [-]
	Block[ 1] 0 [-]
	Block[ 2] 0 [-]
	Block[ 3] 0 [-]
	Block[ 4] 0 [-]
	------------------------------------------------------------------------------
	[fluorine] Average Gibbs chemical potential:   0 +/- 0.000000 [K]

Average Gibbs Widom Ideal-gas contribution:
===========================================
	Block[ 0] 0 [-]
	Block[ 1] 0 [-]
	Block[ 2] 0 [-]
	Block[ 3] 0 [-]
	Block[ 4] 0 [-]
	------------------------------------------------------------------------------
	[2e134tmi_flexible] Average Gibbs Ideal-gas chemical potential:   0 +/- 0.000000 [-]
	Block[ 0] 0 [-]
	Block[ 1] 0 [-]
	Block[ 2] 0 [-]
	Block[ 3] 0 [-]
	Block[ 4] 0 [-]
	------------------------------------------------------------------------------
	[fluorine] Average Gibbs Ideal-gas chemical potential:   0 +/- 0.000000 [-]

Average Gibbs Widom excess contribution:
===========================================
	Block[ 0] 0 [-]
	Block[ 1] 0 [-]
	Block[ 2] 0 [-]
	Block[ 3] 0 [-]
	Block[ 4] 0 [-]
	------------------------------------------------------------------------------
	[2e134tmi_flexible] Average Gibbs excess chemical potential:   0 +/- 0.000000 [-]
	Block[ 0] 0 [-]
	Block[ 1] 0 [-]
	Block[ 2] 0 [-]
	Block[ 3] 0 [-]
	Block[ 4] 0 [-]
	------------------------------------------------------------------------------
	[fluorine] Average Gibbs excess chemical potential:   0 +/- 0.000000 [-]

Average Henry coefficient:
==========================
	Block[ 0] 0 [mol/kg/Pa]
	Block[ 1] 0 [mol/kg/Pa]
	Block[ 2] 0 [mol/kg/Pa]
	Block[ 3] 0 [mol/kg/Pa]
	Block[ 4] 0 [mol/kg/Pa]
	------------------------------------------------------------------------------
	[2e134tmi_flexible] Average Henry coefficient:  0 +/- 0 [mol/kg/Pa]
	Block[ 0] 0 [mol/kg/Pa]
	Block[ 1] 0 [mol/kg/Pa]
	Block[ 2] 0 [mol/kg/Pa]
	Block[ 3] 0 [mol/kg/Pa]
	Block[ 4] 0 [mol/kg/Pa]
	------------------------------------------------------------------------------
	[fluorine] Average Henry coefficient:  0 +/- 0 [mol/kg/Pa]

Average adsorption energy <U_gh>_1-<U_h>_0 obtained from Widom-insertion:
(Note: the total heat of adsorption is dH=<U_gh>_1-<U_h>_0 - <U_g> - RT)
=========================================================================

Simulation finished,  3 warnings
WARNING: INAPPROPRIATE NUMBER OF UNIT CELLS USED
WARNING: REINSERTION MOVE USED ON CHARGED IONS (IF POSSIBLE, CHANGE TO RANDOM TRANSLATION MOVE TO AVOID NUMERICAL PROBLEMS)
WARNING: THERE ARE ATOM-PAIRS WITH NO VDW INTERACTION Ogg-Ogg Ogg-shOgg Ogg-Oss Ogg-shOss Ogg-Ogs Ogg-shOgs Ogg-F Ogg-shF Ogg-Si Ogg-Ge Ogg-C3 Ogg-C2 Ogg-C6 Ogg-C4 Ogg-C5 Ogg-H1 Ogg-H6 Ogg-N1 Ogg-N2 shOgg-Ogg shOgg-Oss shOgg-Ogs Oss-Ogg Oss-shOgg Oss-shOss Oss-Ogs Oss-shOgs Oss-F Oss-shF Oss-Si Oss-Ge Oss-C3 Oss-C2 Oss-C6 Oss-C4 Oss-C5 Oss-H1 Oss-H6 Oss-N1 Oss-N2 shOss-Ogg shOss-Oss shOss-Ogs Ogs-Ogg Ogs-shOgg Ogs-Oss Ogs-shOss Ogs-shOgs Ogs-F Ogs-shF  (maximum 50 interactions shown)


Mon Jan 16 12:28:23 2017
Simulation finished on Monday, January 16.
The end time was 12:28 PM.

