# vtk DataFile Version 1.0
Cube
ASCII

DATASET POLYDATA
POINTS 0 float
5.128186 0.321851 -2.535480
5.740582 0.662074 -1.382895
4.782829 0.605833 -0.425196
3.578427 0.245015 -0.939831
3.800027 0.066943 -2.261936
4.951176 1.133202 0.975645
7.017052 -0.004447 -1.099824
6.906123 -1.104465 -1.218836
7.259658 0.239132 -0.041330
7.749578 0.376920 -1.846911
2.342262 0.301280 0.808362
2.417856 -0.226980 -0.168331
1.469177 -0.151714 -0.737218
2.738176 -1.258368 0.098917
5.334670 0.903921 -3.425598
2.891697 -0.248171 -3.408594
5.998818 1.215546 1.337604
4.518154 2.135435 1.175480
4.227173 0.025817 1.766506
3.148638 0.108814 1.500101
4.291549 0.206967 2.864140
4.614821 -0.949089 1.398132
3.406534 -0.875510 -4.165761
2.577520 0.709923 -3.865718
1.961345 -0.745818 -3.064175
5.128186 0.321851 27.156520
5.740582 0.662074 28.309105
4.782829 0.605833 29.266804
3.578427 0.245015 28.752169
3.800027 0.066943 27.430064
4.951176 1.133202 30.667645
7.017052 -0.004447 28.592176
6.906123 -1.104465 28.473164
7.259658 0.239132 29.650670
7.749578 0.376920 27.845089
2.342262 0.301280 30.500362
2.417856 -0.226980 29.523669
1.469177 -0.151714 28.954782
2.738176 -1.258368 29.790917
5.334670 0.903921 26.266402
2.891697 -0.248171 26.283406
5.998818 1.215546 31.029604
4.518154 2.135435 30.867480
4.227173 0.025817 31.458506
3.148638 0.108814 31.192101
4.291549 0.206967 32.556140
4.614821 -0.949089 31.090132
3.406534 -0.875510 25.526239
2.577520 0.709923 25.826282
1.961345 -0.745818 26.627825
-0.822864 10.629372 -2.535480
-0.210468 10.969595 -1.382895
-1.168221 10.913354 -0.425196
-2.372623 10.552536 -0.939831
-2.151023 10.374464 -2.261936
-0.999874 11.440723 0.975645
1.066002 10.303074 -1.099824
0.955073 9.203056 -1.218836
1.308608 10.546653 -0.041330
1.798528 10.684441 -1.846911
-3.608788 10.608801 0.808362
-3.533194 10.080541 -0.168331
-4.481873 10.155807 -0.737218
-3.212874 9.049153 0.098917
-0.616380 11.211442 -3.425598
-3.059353 10.059350 -3.408594
0.047768 11.523067 1.337604
-1.432896 12.442956 1.175480
-1.723877 10.333338 1.766506
-2.802412 10.416335 1.500101
-1.659501 10.514488 2.864140
-1.336229 9.358432 1.398132
-2.544516 9.432011 -4.165761
-3.373530 11.017444 -3.865718
-3.989705 9.561703 -3.064175
-0.822864 10.629372 27.156520
-0.210468 10.969595 28.309105
-1.168221 10.913354 29.266804
-2.372623 10.552536 28.752169
-2.151023 10.374464 27.430064
-0.999874 11.440723 30.667645
1.066002 10.303074 28.592176
0.955073 9.203056 28.473164
1.308608 10.546653 29.650670
1.798528 10.684441 27.845089
-3.608788 10.608801 30.500362
-3.533194 10.080541 29.523669
-4.481873 10.155807 28.954782
-3.212874 9.049153 29.790917
-0.616380 11.211442 26.266402
-3.059353 10.059350 26.283406
0.047768 11.523067 31.029604
-1.432896 12.442956 30.867480
-1.723877 10.333338 31.458506
-2.802412 10.416335 31.192101
-1.659501 10.514488 32.556140
-1.336229 9.358432 31.090132
-2.544516 9.432011 25.526239
-3.373530 11.017444 25.826282
-3.989705 9.561703 26.627825
3.383901 4.992279 19.409526
3.745457 5.950700 18.532065
4.045333 7.041360 19.279176
3.878157 6.802715 20.606099
3.464947 5.517361 20.682920
3.645275 8.376232 18.707438
2.702705 6.022860 17.501912
1.729091 6.027375 18.039094
2.853369 6.936334 16.884283
2.720189 5.199554 16.752222
5.766636 6.691038 21.381348
4.880787 7.346988 21.535301
4.551406 7.200375 22.583778
5.000329 8.404800 21.211989
3.578137 3.945184 19.210490
3.093999 4.805520 21.945799
3.758758 9.271792 19.355852
2.557833 8.311145 18.494958
4.504308 8.678245 17.463736
4.348076 7.910420 16.671818
4.242866 9.680128 17.051865
5.580253 8.631746 17.740489
2.978514 3.713303 21.785676
3.844809 4.897922 22.754106
2.122775 5.177708 22.333139
3.112462 4.297363 6.906087
2.953361 4.622285 5.606723
2.078749 3.716775 5.103984
1.683360 2.822843 6.047475
2.332577 3.191363 7.175078
1.554165 3.764855 3.692844
3.685119 5.666597 4.880296
4.761123 5.536193 5.128730
3.463080 5.555255 3.795445
3.453360 6.703325 5.214445
0.060765 2.114687 5.023320
0.264356 2.434450 6.069744
-0.372063 3.308090 6.316754
0.012400 1.569974 6.723186
3.763340 4.827878 7.590676
2.711975 2.146273 8.176591
1.040809 4.746493 3.602302
0.886381 2.935292 3.380109
2.796817 3.613296 2.793518
2.531559 3.760492 1.721571
3.217885 2.599009 2.982420
3.524786 4.371107 3.157105
3.806211 1.964529 8.137461
2.084720 1.245455 8.032747
2.512633 2.601194 9.169134
8.330541 -0.447695 14.779406
7.292840 -0.649150 15.617155
6.235400 -0.014290 15.054649
6.575470 0.589309 13.886042
7.888644 0.313955 13.717131
4.846513 -0.005668 15.637516
7.511723 -0.346974 17.036498
7.466815 -1.273975 17.649002
6.708209 0.290404 17.468603
8.502523 0.129725 17.213261
4.780743 1.354863 12.965978
5.717636 0.810738 12.711304
5.510688 -0.221410 12.363262
6.207239 1.294832 11.837387
9.324368 -0.860173 14.905583
8.436020 0.320498 12.324464
4.174533 0.289039 14.802688
4.678191 -1.040688 16.001267
4.772670 0.973169 16.825947
5.357634 0.610724 17.702046
3.701723 1.065152 17.119837
5.049709 2.003533 16.512880
7.659229 0.025845 11.588469
9.316135 -0.334552 12.176406
8.712378 1.372209 12.102287
2.379491 9.859826 14.779406
1.341790 9.658371 15.617155
0.284350 10.293231 15.054649
0.624420 10.896830 13.886042
1.937594 10.621476 13.717131
-1.104537 10.301853 15.637516
1.560673 9.960547 17.036498
1.515765 9.033546 17.649002
0.757159 10.597925 17.468603
2.551473 10.437246 17.213261
-1.170307 11.662384 12.965978
-0.233414 11.118259 12.711304
-0.440362 10.086110 12.363262
0.256189 11.602353 11.837387
3.373318 9.447348 14.905583
2.484970 10.628019 12.324464
-1.776517 10.596560 14.802688
-1.272859 9.266833 16.001267
-1.178380 11.280690 16.825947
-0.593416 10.918245 17.702046
-2.249327 11.372673 17.119837
-0.901341 12.311054 16.512880
1.708179 10.333366 11.588469
3.365085 9.972969 12.176406
2.761328 11.679730 12.102287
-2.786082 5.020624 25.625161
-3.111184 4.922043 24.319855
-4.116958 5.809060 24.121713
-4.442658 6.463257 25.266949
-3.605382 5.966907 26.205770
-4.483906 6.379126 22.776652
-2.966365 3.661731 23.582022
-2.658579 2.871881 24.301684
-2.103813 3.951341 22.941140
-3.890321 3.452505 22.996615
-3.959664 8.476754 24.808711
-4.816873 7.884679 25.200299
-5.093920 8.229724 26.216901
-5.692281 8.044762 24.532600
-2.012073 4.423672 26.092397
-3.317788 6.566562 27.546250
-5.347544 7.073295 22.863859
-4.668940 5.537059 22.077655
-3.190742 7.146446 22.437696
-3.066072 8.012615 23.127122
-3.232092 7.600473 21.420882
-2.330910 6.449586 22.544867
-4.270107 7.011578 27.902568
-2.893007 5.859891 28.285027
-2.634265 7.428526 27.399116
9.116018 5.020624 25.625161
8.790916 4.922043 24.319855
7.785142 5.809060 24.121713
7.459442 6.463257 25.266949
8.296718 5.966907 26.205770
7.418194 6.379126 22.776652
8.935735 3.661731 23.582022
9.243521 2.871881 24.301684
9.798287 3.951341 22.941140
8.011779 3.452505 22.996615
7.942436 8.476754 24.808711
7.085227 7.884679 25.200299
6.808180 8.229724 26.216901
6.209819 8.044762 24.532600
9.890027 4.423672 26.092397
8.584312 6.566562 27.546250
6.554556 7.073295 22.863859
7.233160 5.537059 22.077655
8.711358 7.146446 22.437696
8.836028 8.012615 23.127122
8.670008 7.600473 21.420882
9.571190 6.449586 22.544867
7.631993 7.011578 27.902568
9.009093 5.859891 28.285027
9.267835 7.428526 27.399116
-1.026297 3.275142 10.770313
-1.360607 4.327566 11.544828
-2.180154 5.097646 10.787888
-2.370025 4.565459 9.552433
-1.646235 3.423148 9.546555
-3.138322 5.995688 11.525622
-0.895095 4.604648 12.908748
-1.496219 3.918212 13.544330
-1.070155 5.650494 13.246620
0.172564 4.295589 12.977753
-3.585515 4.174232 7.883016
-3.647074 4.736022 8.841819
-3.928266 5.796384 8.681028
-4.449010 4.388597 9.530282
-0.798851 2.273642 11.115302
-1.559526 2.493313 8.377337
-2.644025 6.612886 12.306699
-3.865732 5.381613 12.096323
-3.943848 6.976087 10.650471
-4.400976 7.740683 11.319443
-4.715999 6.401285 10.089093
-3.372895 7.452974 9.824031
-0.486464 2.484893 8.093825
-2.157347 2.951350 7.565903
-1.973807 1.474793 8.528405
10.875803 3.275142 10.770313
10.541493 4.327566 11.544828
9.721946 5.097646 10.787888
9.532075 4.565459 9.552433
10.255865 3.423148 9.546555
8.763778 5.995688 11.525622
11.007005 4.604648 12.908748
10.405881 3.918212 13.544330
10.831945 5.650494 13.246620
12.074664 4.295589 12.977753
8.316585 4.174232 7.883016
8.255026 4.736022 8.841819
7.973834 5.796384 8.681028
7.453090 4.388597 9.530282
11.103249 2.273642 11.115302
10.342574 2.493313 8.377337
9.258075 6.612886 12.306699
8.036368 5.381613 12.096323
7.958252 6.976087 10.650471
7.501124 7.740683 11.319443
7.186101 6.401285 10.089093
8.529205 7.452974 9.824031
11.415636 2.484893 8.093825
9.744753 2.951350 7.565903
9.928293 1.474793 8.528405
LINES 300 900
2 0 1
2 1 2
2 2 3
2 3 4
2 4 0
2 6 7
2 6 9
2 6 8
2 6 1
2 2 5
2 5 18
2 5 17
2 5 16
2 18 20
2 18 19
2 18 21
2 3 11
2 11 13
2 11 12
2 11 10
2 4 15
2 15 24
2 15 23
2 15 22
2 0 14
2 25 26
2 26 27
2 27 28
2 28 29
2 29 25
2 31 32
2 31 34
2 31 33
2 31 26
2 27 30
2 30 43
2 30 42
2 30 41
2 43 45
2 43 44
2 43 46
2 28 36
2 36 38
2 36 37
2 36 35
2 29 40
2 40 49
2 40 48
2 40 47
2 25 39
2 50 51
2 51 52
2 52 53
2 53 54
2 54 50
2 56 57
2 56 59
2 56 58
2 56 51
2 52 55
2 55 68
2 55 67
2 55 66
2 68 70
2 68 69
2 68 71
2 53 61
2 61 63
2 61 62
2 61 60
2 54 65
2 65 74
2 65 73
2 65 72
2 50 64
2 75 76
2 76 77
2 77 78
2 78 79
2 79 75
2 81 82
2 81 84
2 81 83
2 81 76
2 77 80
2 80 93
2 80 92
2 80 91
2 93 95
2 93 94
2 93 96
2 78 86
2 86 88
2 86 87
2 86 85
2 79 90
2 90 99
2 90 98
2 90 97
2 75 89
2 100 101
2 101 102
2 102 103
2 103 104
2 104 100
2 106 107
2 106 109
2 106 108
2 106 101
2 102 105
2 105 118
2 105 117
2 105 116
2 118 120
2 118 119
2 118 121
2 103 111
2 111 113
2 111 112
2 111 110
2 104 115
2 115 124
2 115 123
2 115 122
2 100 114
2 125 126
2 126 127
2 127 128
2 128 129
2 129 125
2 131 132
2 131 134
2 131 133
2 131 126
2 127 130
2 130 143
2 130 142
2 130 141
2 143 145
2 143 144
2 143 146
2 128 136
2 136 138
2 136 137
2 136 135
2 129 140
2 140 149
2 140 148
2 140 147
2 125 139
2 150 151
2 151 152
2 152 153
2 153 154
2 154 150
2 156 157
2 156 159
2 156 158
2 156 151
2 152 155
2 155 168
2 155 167
2 155 166
2 168 170
2 168 169
2 168 171
2 153 161
2 161 163
2 161 162
2 161 160
2 154 165
2 165 174
2 165 173
2 165 172
2 150 164
2 175 176
2 176 177
2 177 178
2 178 179
2 179 175
2 181 182
2 181 184
2 181 183
2 181 176
2 177 180
2 180 193
2 180 192
2 180 191
2 193 195
2 193 194
2 193 196
2 178 186
2 186 188
2 186 187
2 186 185
2 179 190
2 190 199
2 190 198
2 190 197
2 175 189
2 200 201
2 201 202
2 202 203
2 203 204
2 204 200
2 206 207
2 206 209
2 206 208
2 206 201
2 202 205
2 205 218
2 205 217
2 205 216
2 218 220
2 218 219
2 218 221
2 203 211
2 211 213
2 211 212
2 211 210
2 204 215
2 215 224
2 215 223
2 215 222
2 200 214
2 225 226
2 226 227
2 227 228
2 228 229
2 229 225
2 231 232
2 231 234
2 231 233
2 231 226
2 227 230
2 230 243
2 230 242
2 230 241
2 243 245
2 243 244
2 243 246
2 228 236
2 236 238
2 236 237
2 236 235
2 229 240
2 240 249
2 240 248
2 240 247
2 225 239
2 250 251
2 251 252
2 252 253
2 253 254
2 254 250
2 256 257
2 256 259
2 256 258
2 256 251
2 252 255
2 255 268
2 255 267
2 255 266
2 268 270
2 268 269
2 268 271
2 253 261
2 261 263
2 261 262
2 261 260
2 254 265
2 265 274
2 265 273
2 265 272
2 250 264
2 275 276
2 276 277
2 277 278
2 278 279
2 279 275
2 281 282
2 281 284
2 281 283
2 281 276
2 277 280
2 280 293
2 280 292
2 280 291
2 293 295
2 293 294
2 293 296
2 278 286
2 286 288
2 286 287
2 286 285
2 279 290
2 290 299
2 290 298
2 290 297
2 275 289
POINT_DATA 0
SCALARS my_scalars float
LOOKUP_TABLE default
1.7
1.55
1.7
1.55
1.7
1.7
1.7
1.09
1.09
1.09
1.09
1.7
1.09
1.09
1.09
1.7
1.09
1.09
1.7
1.09
1.09
1.09
1.09
1.09
1.09
1.7
1.55
1.7
1.55
1.7
1.7
1.7
1.09
1.09
1.09
1.09
1.7
1.09
1.09
1.09
1.7
1.09
1.09
1.7
1.09
1.09
1.09
1.09
1.09
1.09
1.7
1.55
1.7
1.55
1.7
1.7
1.7
1.09
1.09
1.09
1.09
1.7
1.09
1.09
1.09
1.7
1.09
1.09
1.7
1.09
1.09
1.09
1.09
1.09
1.09
1.7
1.55
1.7
1.55
1.7
1.7
1.7
1.09
1.09
1.09
1.09
1.7
1.09
1.09
1.09
1.7
1.09
1.09
1.7
1.09
1.09
1.09
1.09
1.09
1.09
1.7
1.55
1.7
1.55
1.7
1.7
1.7
1.09
1.09
1.09
1.09
1.7
1.09
1.09
1.09
1.7
1.09
1.09
1.7
1.09
1.09
1.09
1.09
1.09
1.09
1.7
1.55
1.7
1.55
1.7
1.7
1.7
1.09
1.09
1.09
1.09
1.7
1.09
1.09
1.09
1.7
1.09
1.09
1.7
1.09
1.09
1.09
1.09
1.09
1.09
1.7
1.55
1.7
1.55
1.7
1.7
1.7
1.09
1.09
1.09
1.09
1.7
1.09
1.09
1.09
1.7
1.09
1.09
1.7
1.09
1.09
1.09
1.09
1.09
1.09
1.7
1.55
1.7
1.55
1.7
1.7
1.7
1.09
1.09
1.09
1.09
1.7
1.09
1.09
1.09
1.7
1.09
1.09
1.7
1.09
1.09
1.09
1.09
1.09
1.09
1.7
1.55
1.7
1.55
1.7
1.7
1.7
1.09
1.09
1.09
1.09
1.7
1.09
1.09
1.09
1.7
1.09
1.09
1.7
1.09
1.09
1.09
1.09
1.09
1.09
1.7
1.55
1.7
1.55
1.7
1.7
1.7
1.09
1.09
1.09
1.09
1.7
1.09
1.09
1.09
1.7
1.09
1.09
1.7
1.09
1.09
1.09
1.09
1.09
1.09
1.7
1.55
1.7
1.55
1.7
1.7
1.7
1.09
1.09
1.09
1.09
1.7
1.09
1.09
1.09
1.7
1.09
1.09
1.7
1.09
1.09
1.09
1.09
1.09
1.09
1.7
1.55
1.7
1.55
1.7
1.7
1.7
1.09
1.09
1.09
1.09
1.7
1.09
1.09
1.09
1.7
1.09
1.09
1.7
1.09
1.09
1.09
1.09
1.09
1.09
VECTORS vectors float
0.3125 0 0
0 0 0
0.3125 0 0
0 0 0
0.3125 0 0
0.3125 0 0
0.3125 0 0
0.25 0 0
0.25 0 0
0.25 0 0
0.25 0 0
0.3125 0 0
0.25 0 0
0.25 0 0
0.25 0 0
0.3125 0 0
0.25 0 0
0.25 0 0
0.3125 0 0
0.25 0 0
0.25 0 0
0.25 0 0
0.25 0 0
0.25 0 0
0.25 0 0
0.3125 0 0
0 0 0
0.3125 0 0
0 0 0
0.3125 0 0
0.3125 0 0
0.3125 0 0
0.25 0 0
0.25 0 0
0.25 0 0
0.25 0 0
0.3125 0 0
0.25 0 0
0.25 0 0
0.25 0 0
0.3125 0 0
0.25 0 0
0.25 0 0
0.3125 0 0
0.25 0 0
0.25 0 0
0.25 0 0
0.25 0 0
0.25 0 0
0.25 0 0
0.3125 0 0
0 0 0
0.3125 0 0
0 0 0
0.3125 0 0
0.3125 0 0
0.3125 0 0
0.25 0 0
0.25 0 0
0.25 0 0
0.25 0 0
0.3125 0 0
0.25 0 0
0.25 0 0
0.25 0 0
0.3125 0 0
0.25 0 0
0.25 0 0
0.3125 0 0
0.25 0 0
0.25 0 0
0.25 0 0
0.25 0 0
0.25 0 0
0.25 0 0
0.3125 0 0
0 0 0
0.3125 0 0
0 0 0
0.3125 0 0
0.3125 0 0
0.3125 0 0
0.25 0 0
0.25 0 0
0.25 0 0
0.25 0 0
0.3125 0 0
0.25 0 0
0.25 0 0
0.25 0 0
0.3125 0 0
0.25 0 0
0.25 0 0
0.3125 0 0
0.25 0 0
0.25 0 0
0.25 0 0
0.25 0 0
0.25 0 0
0.25 0 0
0.3125 0 0
0 0 0
0.3125 0 0
0 0 0
0.3125 0 0
0.3125 0 0
0.3125 0 0
0.25 0 0
0.25 0 0
0.25 0 0
0.25 0 0
0.3125 0 0
0.25 0 0
0.25 0 0
0.25 0 0
0.3125 0 0
0.25 0 0
0.25 0 0
0.3125 0 0
0.25 0 0
0.25 0 0
0.25 0 0
0.25 0 0
0.25 0 0
0.25 0 0
0.3125 0 0
0 0 0
0.3125 0 0
0 0 0
0.3125 0 0
0.3125 0 0
0.3125 0 0
0.25 0 0
0.25 0 0
0.25 0 0
0.25 0 0
0.3125 0 0
0.25 0 0
0.25 0 0
0.25 0 0
0.3125 0 0
0.25 0 0
0.25 0 0
0.3125 0 0
0.25 0 0
0.25 0 0
0.25 0 0
0.25 0 0
0.25 0 0
0.25 0 0
0.3125 0 0
0 0 0
0.3125 0 0
0 0 0
0.3125 0 0
0.3125 0 0
0.3125 0 0
0.25 0 0
0.25 0 0
0.25 0 0
0.25 0 0
0.3125 0 0
0.25 0 0
0.25 0 0
0.25 0 0
0.3125 0 0
0.25 0 0
0.25 0 0
0.3125 0 0
0.25 0 0
0.25 0 0
0.25 0 0
0.25 0 0
0.25 0 0
0.25 0 0
0.3125 0 0
0 0 0
0.3125 0 0
0 0 0
0.3125 0 0
0.3125 0 0
0.3125 0 0
0.25 0 0
0.25 0 0
0.25 0 0
0.25 0 0
0.3125 0 0
0.25 0 0
0.25 0 0
0.25 0 0
0.3125 0 0
0.25 0 0
0.25 0 0
0.3125 0 0
0.25 0 0
0.25 0 0
0.25 0 0
0.25 0 0
0.25 0 0
0.25 0 0
0.3125 0 0
0 0 0
0.3125 0 0
0 0 0
0.3125 0 0
0.3125 0 0
0.3125 0 0
0.25 0 0
0.25 0 0
0.25 0 0
0.25 0 0
0.3125 0 0
0.25 0 0
0.25 0 0
0.25 0 0
0.3125 0 0
0.25 0 0
0.25 0 0
0.3125 0 0
0.25 0 0
0.25 0 0
0.25 0 0
0.25 0 0
0.25 0 0
0.25 0 0
0.3125 0 0
0 0 0
0.3125 0 0
0 0 0
0.3125 0 0
0.3125 0 0
0.3125 0 0
0.25 0 0
0.25 0 0
0.25 0 0
0.25 0 0
0.3125 0 0
0.25 0 0
0.25 0 0
0.25 0 0
0.3125 0 0
0.25 0 0
0.25 0 0
0.3125 0 0
0.25 0 0
0.25 0 0
0.25 0 0
0.25 0 0
0.25 0 0
0.25 0 0
0.3125 0 0
0 0 0
0.3125 0 0
0 0 0
0.3125 0 0
0.3125 0 0
0.3125 0 0
0.25 0 0
0.25 0 0
0.25 0 0
0.25 0 0
0.3125 0 0
0.25 0 0
0.25 0 0
0.25 0 0
0.3125 0 0
0.25 0 0
0.25 0 0
0.3125 0 0
0.25 0 0
0.25 0 0
0.25 0 0
0.25 0 0
0.25 0 0
0.25 0 0
0.3125 0 0
0 0 0
0.3125 0 0
0 0 0
0.3125 0 0
0.3125 0 0
0.3125 0 0
0.25 0 0
0.25 0 0
0.25 0 0
0.25 0 0
0.3125 0 0
0.25 0 0
0.25 0 0
0.25 0 0
0.3125 0 0
0.25 0 0
0.25 0 0
0.3125 0 0
0.25 0 0
0.25 0 0
0.25 0 0
0.25 0 0
0.25 0 0
0.25 0 0
