# vtk DataFile Version 1.0
Cube
ASCII

DATASET POLYDATA
POINTS 194 float
6.090900 3.872536 1.006262
5.502936 3.338606 10.903496
6.259314 3.096379 20.801028
-0.139850 6.434985 15.852262
0.448114 6.968915 25.749496
-0.308264 7.211142 5.955028
0.308264 7.211142 8.890972
0.139850 6.434985 28.685738
-0.448114 6.968915 18.788504
5.642786 3.096379 23.736972
5.811200 3.872536 13.839738
6.399164 3.338606 3.942504
3.851520 4.261129 28.708304
6.286094 1.204949 8.913538
7.715536 4.841443 18.811070
2.099530 6.046392 13.862304
-0.335044 9.102572 23.759538
-1.764486 5.466078 3.965070
1.764486 5.466078 10.880930
-2.099530 6.046392 0.983696
0.335044 9.102572 20.778462
4.186564 4.841443 25.726930
8.050580 4.261129 15.829696
5.616006 1.204949 5.932462
1.209848 4.064256 25.273533
1.826377 9.323153 5.478768
-3.036226 7.227634 15.376299
4.741202 6.243265 10.427533
4.124673 0.984368 20.324768
8.987276 3.079887 0.530299
2.914824 3.079887 14.315701
7.160898 6.243265 4.418467
7.777427 0.984368 24.213232
3.036226 7.227634 29.161701
-1.209848 4.064256 19.264467
-1.826377 9.323153 9.367232
0.964665 3.451989 28.269753
2.479207 9.416951 8.474988
-3.443873 7.746102 18.372519
4.986385 6.855532 13.423753
3.471843 0.890570 23.320988
9.394923 2.561419 3.526519
2.507177 2.561419 11.319481
6.915715 6.855532 1.422247
8.430257 0.890570 21.217012
3.443873 7.746102 26.165481
-0.964665 3.451989 16.268247
-2.479207 9.416951 6.371012
10.816033 1.266794 28.711273
5.397007 8.733563 8.916508
1.640109 0.307164 18.814039
-4.864983 9.040727 13.865273
0.554043 1.573958 23.762508
4.310941 10.000357 3.968039
-4.310941 10.000357 10.877961
4.864983 9.040727 0.980727
-0.554043 1.573958 20.775492
10.261991 0.307164 25.723961
1.086067 1.266794 15.826727
6.505093 8.733563 5.929492
10.997540 0.000000 0.000000
10.997540 0.000000 29.692000
5.046490 10.307521 0.000000
5.046490 10.307521 29.692000
-5.498770 9.524149 9.897234
6.403330 9.524149 9.897234
0.452280 0.783372 19.794766
0.904560 0.000000 14.846000
-5.046490 10.307521 14.846000
-0.452280 0.783372 24.743234
11.449820 0.783372 24.743234
5.498770 9.524149 4.948766
0.546306 5.988670 9.874668
0.491557 7.786301 19.771903
-1.037863 6.840071 -0.022566
-1.037863 6.840071 29.669434
5.404744 4.318851 24.720668
5.459493 2.521220 4.925903
6.988913 3.467450 14.823434
4.913187 3.467450 0.022566
4.913187 3.467450 29.714566
6.497356 4.318851 19.817332
6.442607 2.521220 9.920097
1.037863 6.840071 14.868566
-0.546306 5.988670 4.971332
-0.491557 7.786301 24.766097
0.285650 2.207871 28.855873
3.896152 9.450966 9.061108
-4.181803 8.956205 18.958639
5.665400 8.099650 14.009873
2.054898 0.856555 23.907108
10.132853 1.351316 4.112639
1.769247 1.351316 10.733361
6.236700 8.099650 0.836127
9.847202 0.856555 20.630892
4.181803 8.956205 25.579361
-0.285650 2.207871 15.682127
-3.896152 9.450966 5.784892
5.951050 8.839730 7.423000
1.271144 0.733895 17.320234
10.630956 0.733895 27.217766
0.000000 1.467791 22.269000
4.679906 9.573625 2.474234
-4.679906 9.573625 12.371766
9.478832 2.098611 29.058076
5.345233 7.159604 9.263310
3.029084 1.049306 19.160841
-3.527782 8.208910 14.212076
0.605817 3.147917 24.109310
2.921966 9.258215 4.314841
-2.921966 9.258215 10.531159
3.527782 8.208910 0.633924
-0.605817 3.147917 20.428690
8.873016 1.049306 25.377159
2.423268 2.098611 15.479924
6.556867 7.159604 5.582690
-0.001190 6.572075 7.423000
0.260061 7.020453 17.320234
-0.258871 7.022514 27.217766
5.952240 3.735446 22.269000
5.690989 3.287068 2.474234
6.209921 3.285007 12.371766
2.465520 3.363344 28.770954
7.756599 0.453531 8.976189
7.631031 6.490646 18.873720
3.485530 6.944177 13.924954
-1.805549 9.853990 23.822189
-1.679981 3.816875 4.027720
1.679981 3.816875 10.818280
-3.485530 6.944177 0.921046
1.805549 9.853990 20.715811
4.271069 6.490646 25.664280
9.436580 3.363344 15.767046
4.145501 0.453531 5.869811
7.370971 3.094318 0.337004
5.536857 4.836289 10.234239
4.945323 2.376914 20.131770
-1.419921 7.213203 15.183004
0.414193 5.471232 25.080239
1.005727 7.930607 5.285770
-1.005727 7.930607 9.560230
1.419921 7.213203 29.354996
-0.414193 5.471232 19.457761
6.956777 2.376914 24.406230
4.531129 3.094318 14.508996
6.365243 4.836289 4.611761
6.226584 5.453709 0.919264
4.065757 2.665525 10.816499
7.560809 2.188287 20.714030
-0.275534 4.853812 15.765264
1.885293 7.641996 25.662499
-1.609759 8.119234 5.868030
1.609759 8.119234 8.977970
0.275534 4.853812 28.772736
-1.885293 7.641996 18.875501
4.341291 2.188287 23.823970
5.675516 5.453709 13.926736
7.836343 2.665525 4.029501
0.863497 3.324176 26.683310
2.640481 9.393244 6.888544
-3.503978 7.897623 16.786075
5.087553 6.983345 11.837310
3.310569 0.914277 21.734544
9.455028 2.409898 1.940075
2.447072 2.409898 12.905925
6.814547 6.983345 3.008690
8.591531 0.914277 22.803456
3.503978 7.897623 27.751925
-0.863497 3.324176 17.854690
-2.640481 9.393244 7.957456
3.645613 5.763966 29.345791
5.087553 0.275211 9.551026
9.119984 4.268344 19.448557
2.305437 4.543555 14.499791
0.863497 10.032310 24.397026
-3.168934 6.039177 4.602557
3.168934 6.039177 10.243443
-2.305437 4.543555 0.346209
-0.863497 10.032310 20.140974
2.782116 4.268344 25.089443
8.256487 5.763966 15.192209
6.814547 0.275211 5.294974
5.950455 1.765678 7.423000
7.397750 4.270406 17.320234
4.504945 4.271437 27.217766
0.000595 8.541843 22.269000
-1.446700 6.037115 2.474234
1.446105 6.036084 12.371766
0.000000 9.297384 7.423000
-2.100721 5.658829 17.320234
2.100721 5.658829 27.217766
5.951050 1.010137 22.269000
8.051771 4.648692 2.474234
3.850329 4.648692 12.371766
POINT_DATA 194
SCALARS my_scalars float
LOOKUP_TABLE default
2
2.1
2
2.1
2
2.1
2
2.1
2.1
2.1
2
2
2.1
2.1
2.1
2.1
2.1
2.1
2.1
2.1
2.1
2.1
2.1
2.1
2.1
2.1
2.1
2.1
2.1
2.1
2.1
2.1
2.1
2.1
2.1
2.1
2.1
2.1
2.1
2.1
2.1
2.1
2.1
2.1
2.1
2.1
2.1
2.1
2.1
2.1
2.1
2.1
2.1
2.1
2
2.1
2
2.1
2
2.1
1.52
1.52
1.52
1.52
1.52
1.52
1.52
1.52
1.52
1.52
1.52
1.52
1.52
1.52
1.52
1.52
1.52
1.52
1.52
1.52
1.52
1.52
1.52
1.52
1.52
1.52
1.52
1.52
1.52
1.52
1.52
1.52
1.52
1.52
1.52
1.52
1.52
1.52
1.52
1.52
1.52
1.52
1.52
1.52
1.52
1.52
1.52
1.52
1.52
1.52
1.52
1.52
1.52
1.52
1.52
1.52
1.52
1.52
1.52
1.52
1.52
1.52
1.52
1.52
1.52
1.52
1.52
1.52
1.52
1.52
1.52
1.52
1.52
1.52
1.52
1.52
1.52
1.52
1.52
1.52
1.52
1.52
1.52
1.52
1.52
1.52
1.52
1.52
1.52
1.52
1.52
1.52
1.52
1.52
1.52
1.52
1.52
1.52
1.52
1.52
1.52
1.52
1.52
1.52
1.52
1.52
1.52
1.52
1.52
1.52
1.52
1.52
1.52
1.52
1.52
1.52
1.52
1.52
1.52
1.52
1.52
1.52
1.52
1.52
1.52
1.52
1.52
1.52
1.47
1.47
1.47
1.47
1.47
1.47
VECTORS vectors float
0.4375 0 0
0.125 0 0
0.4375 0 0
0.125 0 0
0.4375 0 0
0.125 0 0
0.4375 0 0
0.125 0 0
0.125 0 0
0.125 0 0
0.4375 0 0
0.4375 0 0
0.125 0 0
0.125 0 0
0.125 0 0
0.125 0 0
0.125 0 0
0.125 0 0
0.125 0 0
0.125 0 0
0.125 0 0
0.125 0 0
0.125 0 0
0.125 0 0
0.125 0 0
0.125 0 0
0.125 0 0
0.125 0 0
0.125 0 0
0.125 0 0
0.125 0 0
0.125 0 0
0.125 0 0
0.125 0 0
0.125 0 0
0.125 0 0
0.125 0 0
0.125 0 0
0.125 0 0
0.125 0 0
0.125 0 0
0.125 0 0
0.125 0 0
0.125 0 0
0.125 0 0
0.125 0 0
0.125 0 0
0.125 0 0
0.125 0 0
0.125 0 0
0.125 0 0
0.125 0 0
0.125 0 0
0.125 0 0
0.4375 0 0
0.125 0 0
0.4375 0 0
0.125 0 0
0.4375 0 0
0.125 0 0
0.03125 0 0
0.03125 0 0
0.03125 0 0
0.03125 0 0
0.03125 0 0
0.03125 0 0
0.03125 0 0
0.03125 0 0
0.03125 0 0
0.03125 0 0
0.03125 0 0
0.03125 0 0
0.03125 0 0
0.03125 0 0
0.03125 0 0
0.03125 0 0
0.03125 0 0
0.03125 0 0
0.03125 0 0
0.03125 0 0
0.03125 0 0
0.03125 0 0
0.03125 0 0
0.03125 0 0
0.03125 0 0
0.03125 0 0
0.03125 0 0
0.03125 0 0
0.03125 0 0
0.03125 0 0
0.03125 0 0
0.03125 0 0
0.03125 0 0
0.03125 0 0
0.03125 0 0
0.03125 0 0
0.03125 0 0
0.03125 0 0
0.03125 0 0
0.03125 0 0
0.03125 0 0
0.03125 0 0
0.03125 0 0
0.03125 0 0
0.03125 0 0
0.03125 0 0
0.03125 0 0
0.03125 0 0
0.03125 0 0
0.03125 0 0
0.03125 0 0
0.03125 0 0
0.03125 0 0
0.03125 0 0
0.03125 0 0
0.03125 0 0
0.03125 0 0
0.03125 0 0
0.03125 0 0
0.03125 0 0
0.03125 0 0
0.03125 0 0
0.03125 0 0
0.03125 0 0
0.03125 0 0
0.03125 0 0
0.03125 0 0
0.03125 0 0
0.03125 0 0
0.03125 0 0
0.03125 0 0
0.03125 0 0
0.03125 0 0
0.03125 0 0
0.03125 0 0
0.03125 0 0
0.03125 0 0
0.03125 0 0
0.03125 0 0
0.03125 0 0
0.03125 0 0
0.03125 0 0
0.03125 0 0
0.03125 0 0
0.03125 0 0
0.03125 0 0
0.03125 0 0
0.03125 0 0
0.03125 0 0
0.03125 0 0
0.03125 0 0
0.03125 0 0
0.03125 0 0
0.03125 0 0
0.03125 0 0
0.03125 0 0
0.03125 0 0
0.03125 0 0
0.03125 0 0
0.03125 0 0
0.03125 0 0
0.03125 0 0
0.03125 0 0
0.03125 0 0
0.03125 0 0
0.03125 0 0
0.03125 0 0
0.03125 0 0
0.03125 0 0
0.03125 0 0
0.03125 0 0
0.03125 0 0
0.03125 0 0
0.03125 0 0
0.03125 0 0
0.03125 0 0
0.03125 0 0
0.03125 0 0
0.03125 0 0
0.03125 0 0
0.03125 0 0
0.03125 0 0
0.03125 0 0
0.03125 0 0
0.03125 0 0
0.03125 0 0
0.03125 0 0
0.03125 0 0
0.4375 0 0
0.4375 0 0
0.4375 0 0
0.4375 0 0
0.4375 0 0
0.4375 0 0
